PSF CMAP CHEQ

       2 !NTITLE
* GENERATE DATA TO USE VMD SOLVATE                                              
*  DATE:    10/ 5/12     15: 8:51      CREATED BY USER: taly                    

     648 !NATOM
       1 QQQ  1    TIP3 OH2  OT    -0.834000       15.9994           0   0.00000     -0.301140E-02
       2 QQQ  1    TIP3 H1   HT     0.417000       1.00800           0   0.00000     -0.301140E-02
       3 QQQ  1    TIP3 H2   HT     0.417000       1.00800           0   0.00000     -0.301140E-02
       4 QQQ  2    TIP3 OH2  OT    -0.834000       15.9994           0   0.00000     -0.301140E-02
       5 QQQ  2    TIP3 H1   HT     0.417000       1.00800           0   0.00000     -0.301140E-02
       6 QQQ  2    TIP3 H2   HT     0.417000       1.00800           0   0.00000     -0.301140E-02
       7 QQQ  3    TIP3 OH2  OT    -0.834000       15.9994           0   0.00000     -0.301140E-02
       8 QQQ  3    TIP3 H1   HT     0.417000       1.00800           0   0.00000     -0.301140E-02
       9 QQQ  3    TIP3 H2   HT     0.417000       1.00800           0   0.00000     -0.301140E-02
      10 QQQ  4    TIP3 OH2  OT    -0.834000       15.9994           0   0.00000     -0.301140E-02
      11 QQQ  4    TIP3 H1   HT     0.417000       1.00800           0   0.00000     -0.301140E-02
      12 QQQ  4    TIP3 H2   HT     0.417000       1.00800           0   0.00000     -0.301140E-02
      13 QQQ  5    TIP3 OH2  OT    -0.834000       15.9994           0   0.00000     -0.301140E-02
      14 QQQ  5    TIP3 H1   HT     0.417000       1.00800           0   0.00000     -0.301140E-02
      15 QQQ  5    TIP3 H2   HT     0.417000       1.00800           0   0.00000     -0.301140E-02
      16 QQQ  6    TIP3 OH2  OT    -0.834000       15.9994           0   0.00000     -0.301140E-02
      17 QQQ  6    TIP3 H1   HT     0.417000       1.00800           0   0.00000     -0.301140E-02
      18 QQQ  6    TIP3 H2   HT     0.417000       1.00800           0   0.00000     -0.301140E-02
      19 QQQ  7    TIP3 OH2  OT    -0.834000       15.9994           0   0.00000     -0.301140E-02
      20 QQQ  7    TIP3 H1   HT     0.417000       1.00800           0   0.00000     -0.301140E-02
      21 QQQ  7    TIP3 H2   HT     0.417000       1.00800           0   0.00000     -0.301140E-02
      22 QQQ  8    TIP3 OH2  OT    -0.834000       15.9994           0   0.00000     -0.301140E-02
      23 QQQ  8    TIP3 H1   HT     0.417000       1.00800           0   0.00000     -0.301140E-02
      24 QQQ  8    TIP3 H2   HT     0.417000       1.00800           0   0.00000     -0.301140E-02
      25 QQQ  9    TIP3 OH2  OT    -0.834000       15.9994           0   0.00000     -0.301140E-02
      26 QQQ  9    TIP3 H1   HT     0.417000       1.00800           0   0.00000     -0.301140E-02
      27 QQQ  9    TIP3 H2   HT     0.417000       1.00800           0   0.00000     -0.301140E-02
      28 QQQ  10   TIP3 OH2  OT    -0.834000       15.9994           0   0.00000     -0.301140E-02
      29 QQQ  10   TIP3 H1   HT     0.417000       1.00800           0   0.00000     -0.301140E-02
      30 QQQ  10   TIP3 H2   HT     0.417000       1.00800           0   0.00000     -0.301140E-02
      31 QQQ  11   TIP3 OH2  OT    -0.834000       15.9994           0   0.00000     -0.301140E-02
      32 QQQ  11   TIP3 H1   HT     0.417000       1.00800           0   0.00000     -0.301140E-02
      33 QQQ  11   TIP3 H2   HT     0.417000       1.00800           0   0.00000     -0.301140E-02
      34 QQQ  12   TIP3 OH2  OT    -0.834000       15.9994           0   0.00000     -0.301140E-02
      35 QQQ  12   TIP3 H1   HT     0.417000       1.00800           0   0.00000     -0.301140E-02
      36 QQQ  12   TIP3 H2   HT     0.417000       1.00800           0   0.00000     -0.301140E-02
      37 QQQ  13   TIP3 OH2  OT    -0.834000       15.9994           0   0.00000     -0.301140E-02
      38 QQQ  13   TIP3 H1   HT     0.417000       1.00800           0   0.00000     -0.301140E-02
      39 QQQ  13   TIP3 H2   HT     0.417000       1.00800           0   0.00000     -0.301140E-02
      40 QQQ  14   TIP3 OH2  OT    -0.834000       15.9994           0   0.00000     -0.301140E-02
      41 QQQ  14   TIP3 H1   HT     0.417000       1.00800           0   0.00000     -0.301140E-02
      42 QQQ  14   TIP3 H2   HT     0.417000       1.00800           0   0.00000     -0.301140E-02
      43 QQQ  15   TIP3 OH2  OT    -0.834000       15.9994           0   0.00000     -0.301140E-02
      44 QQQ  15   TIP3 H1   HT     0.417000       1.00800           0   0.00000     -0.301140E-02
      45 QQQ  15   TIP3 H2   HT     0.417000       1.00800           0   0.00000     -0.301140E-02
      46 QQQ  16   TIP3 OH2  OT    -0.834000       15.9994           0   0.00000     -0.301140E-02
      47 QQQ  16   TIP3 H1   HT     0.417000       1.00800           0   0.00000     -0.301140E-02
      48 QQQ  16   TIP3 H2   HT     0.417000       1.00800           0   0.00000     -0.301140E-02
      49 QQQ  17   TIP3 OH2  OT    -0.834000       15.9994           0   0.00000     -0.301140E-02
      50 QQQ  17   TIP3 H1   HT     0.417000       1.00800           0   0.00000     -0.301140E-02
      51 QQQ  17   TIP3 H2   HT     0.417000       1.00800           0   0.00000     -0.301140E-02
      52 QQQ  18   TIP3 OH2  OT    -0.834000       15.9994           0   0.00000     -0.301140E-02
      53 QQQ  18   TIP3 H1   HT     0.417000       1.00800           0   0.00000     -0.301140E-02
      54 QQQ  18   TIP3 H2   HT     0.417000       1.00800           0   0.00000     -0.301140E-02
      55 QQQ  19   TIP3 OH2  OT    -0.834000       15.9994           0   0.00000     -0.301140E-02
      56 QQQ  19   TIP3 H1   HT     0.417000       1.00800           0   0.00000     -0.301140E-02
      57 QQQ  19   TIP3 H2   HT     0.417000       1.00800           0   0.00000     -0.301140E-02
      58 QQQ  20   TIP3 OH2  OT    -0.834000       15.9994           0   0.00000     -0.301140E-02
      59 QQQ  20   TIP3 H1   HT     0.417000       1.00800           0   0.00000     -0.301140E-02
      60 QQQ  20   TIP3 H2   HT     0.417000       1.00800           0   0.00000     -0.301140E-02
      61 QQQ  21   TIP3 OH2  OT    -0.834000       15.9994           0   0.00000     -0.301140E-02
      62 QQQ  21   TIP3 H1   HT     0.417000       1.00800           0   0.00000     -0.301140E-02
      63 QQQ  21   TIP3 H2   HT     0.417000       1.00800           0   0.00000     -0.301140E-02
      64 QQQ  22   TIP3 OH2  OT    -0.834000       15.9994           0   0.00000     -0.301140E-02
      65 QQQ  22   TIP3 H1   HT     0.417000       1.00800           0   0.00000     -0.301140E-02
      66 QQQ  22   TIP3 H2   HT     0.417000       1.00800           0   0.00000     -0.301140E-02
      67 QQQ  23   TIP3 OH2  OT    -0.834000       15.9994           0   0.00000     -0.301140E-02
      68 QQQ  23   TIP3 H1   HT     0.417000       1.00800           0   0.00000     -0.301140E-02
      69 QQQ  23   TIP3 H2   HT     0.417000       1.00800           0   0.00000     -0.301140E-02
      70 QQQ  24   TIP3 OH2  OT    -0.834000       15.9994           0   0.00000     -0.301140E-02
      71 QQQ  24   TIP3 H1   HT     0.417000       1.00800           0   0.00000     -0.301140E-02
      72 QQQ  24   TIP3 H2   HT     0.417000       1.00800           0   0.00000     -0.301140E-02
      73 QQQ  25   TIP3 OH2  OT    -0.834000       15.9994           0   0.00000     -0.301140E-02
      74 QQQ  25   TIP3 H1   HT     0.417000       1.00800           0   0.00000     -0.301140E-02
      75 QQQ  25   TIP3 H2   HT     0.417000       1.00800           0   0.00000     -0.301140E-02
      76 QQQ  26   TIP3 OH2  OT    -0.834000       15.9994           0   0.00000     -0.301140E-02
      77 QQQ  26   TIP3 H1   HT     0.417000       1.00800           0   0.00000     -0.301140E-02
      78 QQQ  26   TIP3 H2   HT     0.417000       1.00800           0   0.00000     -0.301140E-02
      79 QQQ  27   TIP3 OH2  OT    -0.834000       15.9994           0   0.00000     -0.301140E-02
      80 QQQ  27   TIP3 H1   HT     0.417000       1.00800           0   0.00000     -0.301140E-02
      81 QQQ  27   TIP3 H2   HT     0.417000       1.00800           0   0.00000     -0.301140E-02
      82 QQQ  28   TIP3 OH2  OT    -0.834000       15.9994           0   0.00000     -0.301140E-02
      83 QQQ  28   TIP3 H1   HT     0.417000       1.00800           0   0.00000     -0.301140E-02
      84 QQQ  28   TIP3 H2   HT     0.417000       1.00800           0   0.00000     -0.301140E-02
      85 QQQ  29   TIP3 OH2  OT    -0.834000       15.9994           0   0.00000     -0.301140E-02
      86 QQQ  29   TIP3 H1   HT     0.417000       1.00800           0   0.00000     -0.301140E-02
      87 QQQ  29   TIP3 H2   HT     0.417000       1.00800           0   0.00000     -0.301140E-02
      88 QQQ  30   TIP3 OH2  OT    -0.834000       15.9994           0   0.00000     -0.301140E-02
      89 QQQ  30   TIP3 H1   HT     0.417000       1.00800           0   0.00000     -0.301140E-02
      90 QQQ  30   TIP3 H2   HT     0.417000       1.00800           0   0.00000     -0.301140E-02
      91 QQQ  31   TIP3 OH2  OT    -0.834000       15.9994           0   0.00000     -0.301140E-02
      92 QQQ  31   TIP3 H1   HT     0.417000       1.00800           0   0.00000     -0.301140E-02
      93 QQQ  31   TIP3 H2   HT     0.417000       1.00800           0   0.00000     -0.301140E-02
      94 QQQ  32   TIP3 OH2  OT    -0.834000       15.9994           0   0.00000     -0.301140E-02
      95 QQQ  32   TIP3 H1   HT     0.417000       1.00800           0   0.00000     -0.301140E-02
      96 QQQ  32   TIP3 H2   HT     0.417000       1.00800           0   0.00000     -0.301140E-02
      97 QQQ  33   TIP3 OH2  OT    -0.834000       15.9994           0   0.00000     -0.301140E-02
      98 QQQ  33   TIP3 H1   HT     0.417000       1.00800           0   0.00000     -0.301140E-02
      99 QQQ  33   TIP3 H2   HT     0.417000       1.00800           0   0.00000     -0.301140E-02
     100 QQQ  34   TIP3 OH2  OT    -0.834000       15.9994           0   0.00000     -0.301140E-02
     101 QQQ  34   TIP3 H1   HT     0.417000       1.00800           0   0.00000     -0.301140E-02
     102 QQQ  34   TIP3 H2   HT     0.417000       1.00800           0   0.00000     -0.301140E-02
     103 QQQ  35   TIP3 OH2  OT    -0.834000       15.9994           0   0.00000     -0.301140E-02
     104 QQQ  35   TIP3 H1   HT     0.417000       1.00800           0   0.00000     -0.301140E-02
     105 QQQ  35   TIP3 H2   HT     0.417000       1.00800           0   0.00000     -0.301140E-02
     106 QQQ  36   TIP3 OH2  OT    -0.834000       15.9994           0   0.00000     -0.301140E-02
     107 QQQ  36   TIP3 H1   HT     0.417000       1.00800           0   0.00000     -0.301140E-02
     108 QQQ  36   TIP3 H2   HT     0.417000       1.00800           0   0.00000     -0.301140E-02
     109 QQQ  37   TIP3 OH2  OT    -0.834000       15.9994           0   0.00000     -0.301140E-02
     110 QQQ  37   TIP3 H1   HT     0.417000       1.00800           0   0.00000     -0.301140E-02
     111 QQQ  37   TIP3 H2   HT     0.417000       1.00800           0   0.00000     -0.301140E-02
     112 QQQ  38   TIP3 OH2  OT    -0.834000       15.9994           0   0.00000     -0.301140E-02
     113 QQQ  38   TIP3 H1   HT     0.417000       1.00800           0   0.00000     -0.301140E-02
     114 QQQ  38   TIP3 H2   HT     0.417000       1.00800           0   0.00000     -0.301140E-02
     115 QQQ  39   TIP3 OH2  OT    -0.834000       15.9994           0   0.00000     -0.301140E-02
     116 QQQ  39   TIP3 H1   HT     0.417000       1.00800           0   0.00000     -0.301140E-02
     117 QQQ  39   TIP3 H2   HT     0.417000       1.00800           0   0.00000     -0.301140E-02
     118 QQQ  40   TIP3 OH2  OT    -0.834000       15.9994           0   0.00000     -0.301140E-02
     119 QQQ  40   TIP3 H1   HT     0.417000       1.00800           0   0.00000     -0.301140E-02
     120 QQQ  40   TIP3 H2   HT     0.417000       1.00800           0   0.00000     -0.301140E-02
     121 QQQ  41   TIP3 OH2  OT    -0.834000       15.9994           0   0.00000     -0.301140E-02
     122 QQQ  41   TIP3 H1   HT     0.417000       1.00800           0   0.00000     -0.301140E-02
     123 QQQ  41   TIP3 H2   HT     0.417000       1.00800           0   0.00000     -0.301140E-02
     124 QQQ  42   TIP3 OH2  OT    -0.834000       15.9994           0   0.00000     -0.301140E-02
     125 QQQ  42   TIP3 H1   HT     0.417000       1.00800           0   0.00000     -0.301140E-02
     126 QQQ  42   TIP3 H2   HT     0.417000       1.00800           0   0.00000     -0.301140E-02
     127 QQQ  43   TIP3 OH2  OT    -0.834000       15.9994           0   0.00000     -0.301140E-02
     128 QQQ  43   TIP3 H1   HT     0.417000       1.00800           0   0.00000     -0.301140E-02
     129 QQQ  43   TIP3 H2   HT     0.417000       1.00800           0   0.00000     -0.301140E-02
     130 QQQ  44   TIP3 OH2  OT    -0.834000       15.9994           0   0.00000     -0.301140E-02
     131 QQQ  44   TIP3 H1   HT     0.417000       1.00800           0   0.00000     -0.301140E-02
     132 QQQ  44   TIP3 H2   HT     0.417000       1.00800           0   0.00000     -0.301140E-02
     133 QQQ  45   TIP3 OH2  OT    -0.834000       15.9994           0   0.00000     -0.301140E-02
     134 QQQ  45   TIP3 H1   HT     0.417000       1.00800           0   0.00000     -0.301140E-02
     135 QQQ  45   TIP3 H2   HT     0.417000       1.00800           0   0.00000     -0.301140E-02
     136 QQQ  46   TIP3 OH2  OT    -0.834000       15.9994           0   0.00000     -0.301140E-02
     137 QQQ  46   TIP3 H1   HT     0.417000       1.00800           0   0.00000     -0.301140E-02
     138 QQQ  46   TIP3 H2   HT     0.417000       1.00800           0   0.00000     -0.301140E-02
     139 QQQ  47   TIP3 OH2  OT    -0.834000       15.9994           0   0.00000     -0.301140E-02
     140 QQQ  47   TIP3 H1   HT     0.417000       1.00800           0   0.00000     -0.301140E-02
     141 QQQ  47   TIP3 H2   HT     0.417000       1.00800           0   0.00000     -0.301140E-02
     142 QQQ  48   TIP3 OH2  OT    -0.834000       15.9994           0   0.00000     -0.301140E-02
     143 QQQ  48   TIP3 H1   HT     0.417000       1.00800           0   0.00000     -0.301140E-02
     144 QQQ  48   TIP3 H2   HT     0.417000       1.00800           0   0.00000     -0.301140E-02
     145 QQQ  49   TIP3 OH2  OT    -0.834000       15.9994           0   0.00000     -0.301140E-02
     146 QQQ  49   TIP3 H1   HT     0.417000       1.00800           0   0.00000     -0.301140E-02
     147 QQQ  49   TIP3 H2   HT     0.417000       1.00800           0   0.00000     -0.301140E-02
     148 QQQ  50   TIP3 OH2  OT    -0.834000       15.9994           0   0.00000     -0.301140E-02
     149 QQQ  50   TIP3 H1   HT     0.417000       1.00800           0   0.00000     -0.301140E-02
     150 QQQ  50   TIP3 H2   HT     0.417000       1.00800           0   0.00000     -0.301140E-02
     151 QQQ  51   TIP3 OH2  OT    -0.834000       15.9994           0   0.00000     -0.301140E-02
     152 QQQ  51   TIP3 H1   HT     0.417000       1.00800           0   0.00000     -0.301140E-02
     153 QQQ  51   TIP3 H2   HT     0.417000       1.00800           0   0.00000     -0.301140E-02
     154 QQQ  52   TIP3 OH2  OT    -0.834000       15.9994           0   0.00000     -0.301140E-02
     155 QQQ  52   TIP3 H1   HT     0.417000       1.00800           0   0.00000     -0.301140E-02
     156 QQQ  52   TIP3 H2   HT     0.417000       1.00800           0   0.00000     -0.301140E-02
     157 QQQ  53   TIP3 OH2  OT    -0.834000       15.9994           0   0.00000     -0.301140E-02
     158 QQQ  53   TIP3 H1   HT     0.417000       1.00800           0   0.00000     -0.301140E-02
     159 QQQ  53   TIP3 H2   HT     0.417000       1.00800           0   0.00000     -0.301140E-02
     160 QQQ  54   TIP3 OH2  OT    -0.834000       15.9994           0   0.00000     -0.301140E-02
     161 QQQ  54   TIP3 H1   HT     0.417000       1.00800           0   0.00000     -0.301140E-02
     162 QQQ  54   TIP3 H2   HT     0.417000       1.00800           0   0.00000     -0.301140E-02
     163 QQQ  55   TIP3 OH2  OT    -0.834000       15.9994           0   0.00000     -0.301140E-02
     164 QQQ  55   TIP3 H1   HT     0.417000       1.00800           0   0.00000     -0.301140E-02
     165 QQQ  55   TIP3 H2   HT     0.417000       1.00800           0   0.00000     -0.301140E-02
     166 QQQ  56   TIP3 OH2  OT    -0.834000       15.9994           0   0.00000     -0.301140E-02
     167 QQQ  56   TIP3 H1   HT     0.417000       1.00800           0   0.00000     -0.301140E-02
     168 QQQ  56   TIP3 H2   HT     0.417000       1.00800           0   0.00000     -0.301140E-02
     169 QQQ  57   TIP3 OH2  OT    -0.834000       15.9994           0   0.00000     -0.301140E-02
     170 QQQ  57   TIP3 H1   HT     0.417000       1.00800           0   0.00000     -0.301140E-02
     171 QQQ  57   TIP3 H2   HT     0.417000       1.00800           0   0.00000     -0.301140E-02
     172 QQQ  58   TIP3 OH2  OT    -0.834000       15.9994           0   0.00000     -0.301140E-02
     173 QQQ  58   TIP3 H1   HT     0.417000       1.00800           0   0.00000     -0.301140E-02
     174 QQQ  58   TIP3 H2   HT     0.417000       1.00800           0   0.00000     -0.301140E-02
     175 QQQ  59   TIP3 OH2  OT    -0.834000       15.9994           0   0.00000     -0.301140E-02
     176 QQQ  59   TIP3 H1   HT     0.417000       1.00800           0   0.00000     -0.301140E-02
     177 QQQ  59   TIP3 H2   HT     0.417000       1.00800           0   0.00000     -0.301140E-02
     178 QQQ  60   TIP3 OH2  OT    -0.834000       15.9994           0   0.00000     -0.301140E-02
     179 QQQ  60   TIP3 H1   HT     0.417000       1.00800           0   0.00000     -0.301140E-02
     180 QQQ  60   TIP3 H2   HT     0.417000       1.00800           0   0.00000     -0.301140E-02
     181 QQQ  61   TIP3 OH2  OT    -0.834000       15.9994           0   0.00000     -0.301140E-02
     182 QQQ  61   TIP3 H1   HT     0.417000       1.00800           0   0.00000     -0.301140E-02
     183 QQQ  61   TIP3 H2   HT     0.417000       1.00800           0   0.00000     -0.301140E-02
     184 QQQ  62   TIP3 OH2  OT    -0.834000       15.9994           0   0.00000     -0.301140E-02
     185 QQQ  62   TIP3 H1   HT     0.417000       1.00800           0   0.00000     -0.301140E-02
     186 QQQ  62   TIP3 H2   HT     0.417000       1.00800           0   0.00000     -0.301140E-02
     187 QQQ  63   TIP3 OH2  OT    -0.834000       15.9994           0   0.00000     -0.301140E-02
     188 QQQ  63   TIP3 H1   HT     0.417000       1.00800           0   0.00000     -0.301140E-02
     189 QQQ  63   TIP3 H2   HT     0.417000       1.00800           0   0.00000     -0.301140E-02
     190 QQQ  64   TIP3 OH2  OT    -0.834000       15.9994           0   0.00000     -0.301140E-02
     191 QQQ  64   TIP3 H1   HT     0.417000       1.00800           0   0.00000     -0.301140E-02
     192 QQQ  64   TIP3 H2   HT     0.417000       1.00800           0   0.00000     -0.301140E-02
     193 QQQ  65   TIP3 OH2  OT    -0.834000       15.9994           0   0.00000     -0.301140E-02
     194 QQQ  65   TIP3 H1   HT     0.417000       1.00800           0   0.00000     -0.301140E-02
     195 QQQ  65   TIP3 H2   HT     0.417000       1.00800           0   0.00000     -0.301140E-02
     196 QQQ  66   TIP3 OH2  OT    -0.834000       15.9994           0   0.00000     -0.301140E-02
     197 QQQ  66   TIP3 H1   HT     0.417000       1.00800           0   0.00000     -0.301140E-02
     198 QQQ  66   TIP3 H2   HT     0.417000       1.00800           0   0.00000     -0.301140E-02
     199 QQQ  67   TIP3 OH2  OT    -0.834000       15.9994           0   0.00000     -0.301140E-02
     200 QQQ  67   TIP3 H1   HT     0.417000       1.00800           0   0.00000     -0.301140E-02
     201 QQQ  67   TIP3 H2   HT     0.417000       1.00800           0   0.00000     -0.301140E-02
     202 QQQ  68   TIP3 OH2  OT    -0.834000       15.9994           0   0.00000     -0.301140E-02
     203 QQQ  68   TIP3 H1   HT     0.417000       1.00800           0   0.00000     -0.301140E-02
     204 QQQ  68   TIP3 H2   HT     0.417000       1.00800           0   0.00000     -0.301140E-02
     205 QQQ  69   TIP3 OH2  OT    -0.834000       15.9994           0   0.00000     -0.301140E-02
     206 QQQ  69   TIP3 H1   HT     0.417000       1.00800           0   0.00000     -0.301140E-02
     207 QQQ  69   TIP3 H2   HT     0.417000       1.00800           0   0.00000     -0.301140E-02
     208 QQQ  70   TIP3 OH2  OT    -0.834000       15.9994           0   0.00000     -0.301140E-02
     209 QQQ  70   TIP3 H1   HT     0.417000       1.00800           0   0.00000     -0.301140E-02
     210 QQQ  70   TIP3 H2   HT     0.417000       1.00800           0   0.00000     -0.301140E-02
     211 QQQ  71   TIP3 OH2  OT    -0.834000       15.9994           0   0.00000     -0.301140E-02
     212 QQQ  71   TIP3 H1   HT     0.417000       1.00800           0   0.00000     -0.301140E-02
     213 QQQ  71   TIP3 H2   HT     0.417000       1.00800           0   0.00000     -0.301140E-02
     214 QQQ  72   TIP3 OH2  OT    -0.834000       15.9994           0   0.00000     -0.301140E-02
     215 QQQ  72   TIP3 H1   HT     0.417000       1.00800           0   0.00000     -0.301140E-02
     216 QQQ  72   TIP3 H2   HT     0.417000       1.00800           0   0.00000     -0.301140E-02
     217 QQQ  73   TIP3 OH2  OT    -0.834000       15.9994           0   0.00000     -0.301140E-02
     218 QQQ  73   TIP3 H1   HT     0.417000       1.00800           0   0.00000     -0.301140E-02
     219 QQQ  73   TIP3 H2   HT     0.417000       1.00800           0   0.00000     -0.301140E-02
     220 QQQ  74   TIP3 OH2  OT    -0.834000       15.9994           0   0.00000     -0.301140E-02
     221 QQQ  74   TIP3 H1   HT     0.417000       1.00800           0   0.00000     -0.301140E-02
     222 QQQ  74   TIP3 H2   HT     0.417000       1.00800           0   0.00000     -0.301140E-02
     223 QQQ  75   TIP3 OH2  OT    -0.834000       15.9994           0   0.00000     -0.301140E-02
     224 QQQ  75   TIP3 H1   HT     0.417000       1.00800           0   0.00000     -0.301140E-02
     225 QQQ  75   TIP3 H2   HT     0.417000       1.00800           0   0.00000     -0.301140E-02
     226 QQQ  76   TIP3 OH2  OT    -0.834000       15.9994           0   0.00000     -0.301140E-02
     227 QQQ  76   TIP3 H1   HT     0.417000       1.00800           0   0.00000     -0.301140E-02
     228 QQQ  76   TIP3 H2   HT     0.417000       1.00800           0   0.00000     -0.301140E-02
     229 QQQ  77   TIP3 OH2  OT    -0.834000       15.9994           0   0.00000     -0.301140E-02
     230 QQQ  77   TIP3 H1   HT     0.417000       1.00800           0   0.00000     -0.301140E-02
     231 QQQ  77   TIP3 H2   HT     0.417000       1.00800           0   0.00000     -0.301140E-02
     232 QQQ  78   TIP3 OH2  OT    -0.834000       15.9994           0   0.00000     -0.301140E-02
     233 QQQ  78   TIP3 H1   HT     0.417000       1.00800           0   0.00000     -0.301140E-02
     234 QQQ  78   TIP3 H2   HT     0.417000       1.00800           0   0.00000     -0.301140E-02
     235 QQQ  79   TIP3 OH2  OT    -0.834000       15.9994           0   0.00000     -0.301140E-02
     236 QQQ  79   TIP3 H1   HT     0.417000       1.00800           0   0.00000     -0.301140E-02
     237 QQQ  79   TIP3 H2   HT     0.417000       1.00800           0   0.00000     -0.301140E-02
     238 QQQ  80   TIP3 OH2  OT    -0.834000       15.9994           0   0.00000     -0.301140E-02
     239 QQQ  80   TIP3 H1   HT     0.417000       1.00800           0   0.00000     -0.301140E-02
     240 QQQ  80   TIP3 H2   HT     0.417000       1.00800           0   0.00000     -0.301140E-02
     241 QQQ  81   TIP3 OH2  OT    -0.834000       15.9994           0   0.00000     -0.301140E-02
     242 QQQ  81   TIP3 H1   HT     0.417000       1.00800           0   0.00000     -0.301140E-02
     243 QQQ  81   TIP3 H2   HT     0.417000       1.00800           0   0.00000     -0.301140E-02
     244 QQQ  82   TIP3 OH2  OT    -0.834000       15.9994           0   0.00000     -0.301140E-02
     245 QQQ  82   TIP3 H1   HT     0.417000       1.00800           0   0.00000     -0.301140E-02
     246 QQQ  82   TIP3 H2   HT     0.417000       1.00800           0   0.00000     -0.301140E-02
     247 QQQ  83   TIP3 OH2  OT    -0.834000       15.9994           0   0.00000     -0.301140E-02
     248 QQQ  83   TIP3 H1   HT     0.417000       1.00800           0   0.00000     -0.301140E-02
     249 QQQ  83   TIP3 H2   HT     0.417000       1.00800           0   0.00000     -0.301140E-02
     250 QQQ  84   TIP3 OH2  OT    -0.834000       15.9994           0   0.00000     -0.301140E-02
     251 QQQ  84   TIP3 H1   HT     0.417000       1.00800           0   0.00000     -0.301140E-02
     252 QQQ  84   TIP3 H2   HT     0.417000       1.00800           0   0.00000     -0.301140E-02
     253 QQQ  85   TIP3 OH2  OT    -0.834000       15.9994           0   0.00000     -0.301140E-02
     254 QQQ  85   TIP3 H1   HT     0.417000       1.00800           0   0.00000     -0.301140E-02
     255 QQQ  85   TIP3 H2   HT     0.417000       1.00800           0   0.00000     -0.301140E-02
     256 QQQ  86   TIP3 OH2  OT    -0.834000       15.9994           0   0.00000     -0.301140E-02
     257 QQQ  86   TIP3 H1   HT     0.417000       1.00800           0   0.00000     -0.301140E-02
     258 QQQ  86   TIP3 H2   HT     0.417000       1.00800           0   0.00000     -0.301140E-02
     259 QQQ  87   TIP3 OH2  OT    -0.834000       15.9994           0   0.00000     -0.301140E-02
     260 QQQ  87   TIP3 H1   HT     0.417000       1.00800           0   0.00000     -0.301140E-02
     261 QQQ  87   TIP3 H2   HT     0.417000       1.00800           0   0.00000     -0.301140E-02
     262 QQQ  88   TIP3 OH2  OT    -0.834000       15.9994           0   0.00000     -0.301140E-02
     263 QQQ  88   TIP3 H1   HT     0.417000       1.00800           0   0.00000     -0.301140E-02
     264 QQQ  88   TIP3 H2   HT     0.417000       1.00800           0   0.00000     -0.301140E-02
     265 QQQ  89   TIP3 OH2  OT    -0.834000       15.9994           0   0.00000     -0.301140E-02
     266 QQQ  89   TIP3 H1   HT     0.417000       1.00800           0   0.00000     -0.301140E-02
     267 QQQ  89   TIP3 H2   HT     0.417000       1.00800           0   0.00000     -0.301140E-02
     268 QQQ  90   TIP3 OH2  OT    -0.834000       15.9994           0   0.00000     -0.301140E-02
     269 QQQ  90   TIP3 H1   HT     0.417000       1.00800           0   0.00000     -0.301140E-02
     270 QQQ  90   TIP3 H2   HT     0.417000       1.00800           0   0.00000     -0.301140E-02
     271 QQQ  91   TIP3 OH2  OT    -0.834000       15.9994           0   0.00000     -0.301140E-02
     272 QQQ  91   TIP3 H1   HT     0.417000       1.00800           0   0.00000     -0.301140E-02
     273 QQQ  91   TIP3 H2   HT     0.417000       1.00800           0   0.00000     -0.301140E-02
     274 QQQ  92   TIP3 OH2  OT    -0.834000       15.9994           0   0.00000     -0.301140E-02
     275 QQQ  92   TIP3 H1   HT     0.417000       1.00800           0   0.00000     -0.301140E-02
     276 QQQ  92   TIP3 H2   HT     0.417000       1.00800           0   0.00000     -0.301140E-02
     277 QQQ  93   TIP3 OH2  OT    -0.834000       15.9994           0   0.00000     -0.301140E-02
     278 QQQ  93   TIP3 H1   HT     0.417000       1.00800           0   0.00000     -0.301140E-02
     279 QQQ  93   TIP3 H2   HT     0.417000       1.00800           0   0.00000     -0.301140E-02
     280 QQQ  94   TIP3 OH2  OT    -0.834000       15.9994           0   0.00000     -0.301140E-02
     281 QQQ  94   TIP3 H1   HT     0.417000       1.00800           0   0.00000     -0.301140E-02
     282 QQQ  94   TIP3 H2   HT     0.417000       1.00800           0   0.00000     -0.301140E-02
     283 QQQ  95   TIP3 OH2  OT    -0.834000       15.9994           0   0.00000     -0.301140E-02
     284 QQQ  95   TIP3 H1   HT     0.417000       1.00800           0   0.00000     -0.301140E-02
     285 QQQ  95   TIP3 H2   HT     0.417000       1.00800           0   0.00000     -0.301140E-02
     286 QQQ  96   TIP3 OH2  OT    -0.834000       15.9994           0   0.00000     -0.301140E-02
     287 QQQ  96   TIP3 H1   HT     0.417000       1.00800           0   0.00000     -0.301140E-02
     288 QQQ  96   TIP3 H2   HT     0.417000       1.00800           0   0.00000     -0.301140E-02
     289 QQQ  97   TIP3 OH2  OT    -0.834000       15.9994           0   0.00000     -0.301140E-02
     290 QQQ  97   TIP3 H1   HT     0.417000       1.00800           0   0.00000     -0.301140E-02
     291 QQQ  97   TIP3 H2   HT     0.417000       1.00800           0   0.00000     -0.301140E-02
     292 QQQ  98   TIP3 OH2  OT    -0.834000       15.9994           0   0.00000     -0.301140E-02
     293 QQQ  98   TIP3 H1   HT     0.417000       1.00800           0   0.00000     -0.301140E-02
     294 QQQ  98   TIP3 H2   HT     0.417000       1.00800           0   0.00000     -0.301140E-02
     295 QQQ  99   TIP3 OH2  OT    -0.834000       15.9994           0   0.00000     -0.301140E-02
     296 QQQ  99   TIP3 H1   HT     0.417000       1.00800           0   0.00000     -0.301140E-02
     297 QQQ  99   TIP3 H2   HT     0.417000       1.00800           0   0.00000     -0.301140E-02
     298 QQQ  100  TIP3 OH2  OT    -0.834000       15.9994           0   0.00000     -0.301140E-02
     299 QQQ  100  TIP3 H1   HT     0.417000       1.00800           0   0.00000     -0.301140E-02
     300 QQQ  100  TIP3 H2   HT     0.417000       1.00800           0   0.00000     -0.301140E-02
     301 QQQ  101  TIP3 OH2  OT    -0.834000       15.9994           0   0.00000     -0.301140E-02
     302 QQQ  101  TIP3 H1   HT     0.417000       1.00800           0   0.00000     -0.301140E-02
     303 QQQ  101  TIP3 H2   HT     0.417000       1.00800           0   0.00000     -0.301140E-02
     304 QQQ  102  TIP3 OH2  OT    -0.834000       15.9994           0   0.00000     -0.301140E-02
     305 QQQ  102  TIP3 H1   HT     0.417000       1.00800           0   0.00000     -0.301140E-02
     306 QQQ  102  TIP3 H2   HT     0.417000       1.00800           0   0.00000     -0.301140E-02
     307 QQQ  103  TIP3 OH2  OT    -0.834000       15.9994           0   0.00000     -0.301140E-02
     308 QQQ  103  TIP3 H1   HT     0.417000       1.00800           0   0.00000     -0.301140E-02
     309 QQQ  103  TIP3 H2   HT     0.417000       1.00800           0   0.00000     -0.301140E-02
     310 QQQ  104  TIP3 OH2  OT    -0.834000       15.9994           0   0.00000     -0.301140E-02
     311 QQQ  104  TIP3 H1   HT     0.417000       1.00800           0   0.00000     -0.301140E-02
     312 QQQ  104  TIP3 H2   HT     0.417000       1.00800           0   0.00000     -0.301140E-02
     313 QQQ  105  TIP3 OH2  OT    -0.834000       15.9994           0   0.00000     -0.301140E-02
     314 QQQ  105  TIP3 H1   HT     0.417000       1.00800           0   0.00000     -0.301140E-02
     315 QQQ  105  TIP3 H2   HT     0.417000       1.00800           0   0.00000     -0.301140E-02
     316 QQQ  106  TIP3 OH2  OT    -0.834000       15.9994           0   0.00000     -0.301140E-02
     317 QQQ  106  TIP3 H1   HT     0.417000       1.00800           0   0.00000     -0.301140E-02
     318 QQQ  106  TIP3 H2   HT     0.417000       1.00800           0   0.00000     -0.301140E-02
     319 QQQ  107  TIP3 OH2  OT    -0.834000       15.9994           0   0.00000     -0.301140E-02
     320 QQQ  107  TIP3 H1   HT     0.417000       1.00800           0   0.00000     -0.301140E-02
     321 QQQ  107  TIP3 H2   HT     0.417000       1.00800           0   0.00000     -0.301140E-02
     322 QQQ  108  TIP3 OH2  OT    -0.834000       15.9994           0   0.00000     -0.301140E-02
     323 QQQ  108  TIP3 H1   HT     0.417000       1.00800           0   0.00000     -0.301140E-02
     324 QQQ  108  TIP3 H2   HT     0.417000       1.00800           0   0.00000     -0.301140E-02
     325 QQQ  109  TIP3 OH2  OT    -0.834000       15.9994           0   0.00000     -0.301140E-02
     326 QQQ  109  TIP3 H1   HT     0.417000       1.00800           0   0.00000     -0.301140E-02
     327 QQQ  109  TIP3 H2   HT     0.417000       1.00800           0   0.00000     -0.301140E-02
     328 QQQ  110  TIP3 OH2  OT    -0.834000       15.9994           0   0.00000     -0.301140E-02
     329 QQQ  110  TIP3 H1   HT     0.417000       1.00800           0   0.00000     -0.301140E-02
     330 QQQ  110  TIP3 H2   HT     0.417000       1.00800           0   0.00000     -0.301140E-02
     331 QQQ  111  TIP3 OH2  OT    -0.834000       15.9994           0   0.00000     -0.301140E-02
     332 QQQ  111  TIP3 H1   HT     0.417000       1.00800           0   0.00000     -0.301140E-02
     333 QQQ  111  TIP3 H2   HT     0.417000       1.00800           0   0.00000     -0.301140E-02
     334 QQQ  112  TIP3 OH2  OT    -0.834000       15.9994           0   0.00000     -0.301140E-02
     335 QQQ  112  TIP3 H1   HT     0.417000       1.00800           0   0.00000     -0.301140E-02
     336 QQQ  112  TIP3 H2   HT     0.417000       1.00800           0   0.00000     -0.301140E-02
     337 QQQ  113  TIP3 OH2  OT    -0.834000       15.9994           0   0.00000     -0.301140E-02
     338 QQQ  113  TIP3 H1   HT     0.417000       1.00800           0   0.00000     -0.301140E-02
     339 QQQ  113  TIP3 H2   HT     0.417000       1.00800           0   0.00000     -0.301140E-02
     340 QQQ  114  TIP3 OH2  OT    -0.834000       15.9994           0   0.00000     -0.301140E-02
     341 QQQ  114  TIP3 H1   HT     0.417000       1.00800           0   0.00000     -0.301140E-02
     342 QQQ  114  TIP3 H2   HT     0.417000       1.00800           0   0.00000     -0.301140E-02
     343 QQQ  115  TIP3 OH2  OT    -0.834000       15.9994           0   0.00000     -0.301140E-02
     344 QQQ  115  TIP3 H1   HT     0.417000       1.00800           0   0.00000     -0.301140E-02
     345 QQQ  115  TIP3 H2   HT     0.417000       1.00800           0   0.00000     -0.301140E-02
     346 QQQ  116  TIP3 OH2  OT    -0.834000       15.9994           0   0.00000     -0.301140E-02
     347 QQQ  116  TIP3 H1   HT     0.417000       1.00800           0   0.00000     -0.301140E-02
     348 QQQ  116  TIP3 H2   HT     0.417000       1.00800           0   0.00000     -0.301140E-02
     349 QQQ  117  TIP3 OH2  OT    -0.834000       15.9994           0   0.00000     -0.301140E-02
     350 QQQ  117  TIP3 H1   HT     0.417000       1.00800           0   0.00000     -0.301140E-02
     351 QQQ  117  TIP3 H2   HT     0.417000       1.00800           0   0.00000     -0.301140E-02
     352 QQQ  118  TIP3 OH2  OT    -0.834000       15.9994           0   0.00000     -0.301140E-02
     353 QQQ  118  TIP3 H1   HT     0.417000       1.00800           0   0.00000     -0.301140E-02
     354 QQQ  118  TIP3 H2   HT     0.417000       1.00800           0   0.00000     -0.301140E-02
     355 QQQ  119  TIP3 OH2  OT    -0.834000       15.9994           0   0.00000     -0.301140E-02
     356 QQQ  119  TIP3 H1   HT     0.417000       1.00800           0   0.00000     -0.301140E-02
     357 QQQ  119  TIP3 H2   HT     0.417000       1.00800           0   0.00000     -0.301140E-02
     358 QQQ  120  TIP3 OH2  OT    -0.834000       15.9994           0   0.00000     -0.301140E-02
     359 QQQ  120  TIP3 H1   HT     0.417000       1.00800           0   0.00000     -0.301140E-02
     360 QQQ  120  TIP3 H2   HT     0.417000       1.00800           0   0.00000     -0.301140E-02
     361 QQQ  121  TIP3 OH2  OT    -0.834000       15.9994           0   0.00000     -0.301140E-02
     362 QQQ  121  TIP3 H1   HT     0.417000       1.00800           0   0.00000     -0.301140E-02
     363 QQQ  121  TIP3 H2   HT     0.417000       1.00800           0   0.00000     -0.301140E-02
     364 QQQ  122  TIP3 OH2  OT    -0.834000       15.9994           0   0.00000     -0.301140E-02
     365 QQQ  122  TIP3 H1   HT     0.417000       1.00800           0   0.00000     -0.301140E-02
     366 QQQ  122  TIP3 H2   HT     0.417000       1.00800           0   0.00000     -0.301140E-02
     367 QQQ  123  TIP3 OH2  OT    -0.834000       15.9994           0   0.00000     -0.301140E-02
     368 QQQ  123  TIP3 H1   HT     0.417000       1.00800           0   0.00000     -0.301140E-02
     369 QQQ  123  TIP3 H2   HT     0.417000       1.00800           0   0.00000     -0.301140E-02
     370 QQQ  124  TIP3 OH2  OT    -0.834000       15.9994           0   0.00000     -0.301140E-02
     371 QQQ  124  TIP3 H1   HT     0.417000       1.00800           0   0.00000     -0.301140E-02
     372 QQQ  124  TIP3 H2   HT     0.417000       1.00800           0   0.00000     -0.301140E-02
     373 QQQ  125  TIP3 OH2  OT    -0.834000       15.9994           0   0.00000     -0.301140E-02
     374 QQQ  125  TIP3 H1   HT     0.417000       1.00800           0   0.00000     -0.301140E-02
     375 QQQ  125  TIP3 H2   HT     0.417000       1.00800           0   0.00000     -0.301140E-02
     376 QQQ  126  TIP3 OH2  OT    -0.834000       15.9994           0   0.00000     -0.301140E-02
     377 QQQ  126  TIP3 H1   HT     0.417000       1.00800           0   0.00000     -0.301140E-02
     378 QQQ  126  TIP3 H2   HT     0.417000       1.00800           0   0.00000     -0.301140E-02
     379 QQQ  127  TIP3 OH2  OT    -0.834000       15.9994           0   0.00000     -0.301140E-02
     380 QQQ  127  TIP3 H1   HT     0.417000       1.00800           0   0.00000     -0.301140E-02
     381 QQQ  127  TIP3 H2   HT     0.417000       1.00800           0   0.00000     -0.301140E-02
     382 QQQ  128  TIP3 OH2  OT    -0.834000       15.9994           0   0.00000     -0.301140E-02
     383 QQQ  128  TIP3 H1   HT     0.417000       1.00800           0   0.00000     -0.301140E-02
     384 QQQ  128  TIP3 H2   HT     0.417000       1.00800           0   0.00000     -0.301140E-02
     385 QQQ  129  TIP3 OH2  OT    -0.834000       15.9994           0   0.00000     -0.301140E-02
     386 QQQ  129  TIP3 H1   HT     0.417000       1.00800           0   0.00000     -0.301140E-02
     387 QQQ  129  TIP3 H2   HT     0.417000       1.00800           0   0.00000     -0.301140E-02
     388 QQQ  130  TIP3 OH2  OT    -0.834000       15.9994           0   0.00000     -0.301140E-02
     389 QQQ  130  TIP3 H1   HT     0.417000       1.00800           0   0.00000     -0.301140E-02
     390 QQQ  130  TIP3 H2   HT     0.417000       1.00800           0   0.00000     -0.301140E-02
     391 QQQ  131  TIP3 OH2  OT    -0.834000       15.9994           0   0.00000     -0.301140E-02
     392 QQQ  131  TIP3 H1   HT     0.417000       1.00800           0   0.00000     -0.301140E-02
     393 QQQ  131  TIP3 H2   HT     0.417000       1.00800           0   0.00000     -0.301140E-02
     394 QQQ  132  TIP3 OH2  OT    -0.834000       15.9994           0   0.00000     -0.301140E-02
     395 QQQ  132  TIP3 H1   HT     0.417000       1.00800           0   0.00000     -0.301140E-02
     396 QQQ  132  TIP3 H2   HT     0.417000       1.00800           0   0.00000     -0.301140E-02
     397 QQQ  133  TIP3 OH2  OT    -0.834000       15.9994           0   0.00000     -0.301140E-02
     398 QQQ  133  TIP3 H1   HT     0.417000       1.00800           0   0.00000     -0.301140E-02
     399 QQQ  133  TIP3 H2   HT     0.417000       1.00800           0   0.00000     -0.301140E-02
     400 QQQ  134  TIP3 OH2  OT    -0.834000       15.9994           0   0.00000     -0.301140E-02
     401 QQQ  134  TIP3 H1   HT     0.417000       1.00800           0   0.00000     -0.301140E-02
     402 QQQ  134  TIP3 H2   HT     0.417000       1.00800           0   0.00000     -0.301140E-02
     403 QQQ  135  TIP3 OH2  OT    -0.834000       15.9994           0   0.00000     -0.301140E-02
     404 QQQ  135  TIP3 H1   HT     0.417000       1.00800           0   0.00000     -0.301140E-02
     405 QQQ  135  TIP3 H2   HT     0.417000       1.00800           0   0.00000     -0.301140E-02
     406 QQQ  136  TIP3 OH2  OT    -0.834000       15.9994           0   0.00000     -0.301140E-02
     407 QQQ  136  TIP3 H1   HT     0.417000       1.00800           0   0.00000     -0.301140E-02
     408 QQQ  136  TIP3 H2   HT     0.417000       1.00800           0   0.00000     -0.301140E-02
     409 QQQ  137  TIP3 OH2  OT    -0.834000       15.9994           0   0.00000     -0.301140E-02
     410 QQQ  137  TIP3 H1   HT     0.417000       1.00800           0   0.00000     -0.301140E-02
     411 QQQ  137  TIP3 H2   HT     0.417000       1.00800           0   0.00000     -0.301140E-02
     412 QQQ  138  TIP3 OH2  OT    -0.834000       15.9994           0   0.00000     -0.301140E-02
     413 QQQ  138  TIP3 H1   HT     0.417000       1.00800           0   0.00000     -0.301140E-02
     414 QQQ  138  TIP3 H2   HT     0.417000       1.00800           0   0.00000     -0.301140E-02
     415 QQQ  139  TIP3 OH2  OT    -0.834000       15.9994           0   0.00000     -0.301140E-02
     416 QQQ  139  TIP3 H1   HT     0.417000       1.00800           0   0.00000     -0.301140E-02
     417 QQQ  139  TIP3 H2   HT     0.417000       1.00800           0   0.00000     -0.301140E-02
     418 QQQ  140  TIP3 OH2  OT    -0.834000       15.9994           0   0.00000     -0.301140E-02
     419 QQQ  140  TIP3 H1   HT     0.417000       1.00800           0   0.00000     -0.301140E-02
     420 QQQ  140  TIP3 H2   HT     0.417000       1.00800           0   0.00000     -0.301140E-02
     421 QQQ  141  TIP3 OH2  OT    -0.834000       15.9994           0   0.00000     -0.301140E-02
     422 QQQ  141  TIP3 H1   HT     0.417000       1.00800           0   0.00000     -0.301140E-02
     423 QQQ  141  TIP3 H2   HT     0.417000       1.00800           0   0.00000     -0.301140E-02
     424 QQQ  142  TIP3 OH2  OT    -0.834000       15.9994           0   0.00000     -0.301140E-02
     425 QQQ  142  TIP3 H1   HT     0.417000       1.00800           0   0.00000     -0.301140E-02
     426 QQQ  142  TIP3 H2   HT     0.417000       1.00800           0   0.00000     -0.301140E-02
     427 QQQ  143  TIP3 OH2  OT    -0.834000       15.9994           0   0.00000     -0.301140E-02
     428 QQQ  143  TIP3 H1   HT     0.417000       1.00800           0   0.00000     -0.301140E-02
     429 QQQ  143  TIP3 H2   HT     0.417000       1.00800           0   0.00000     -0.301140E-02
     430 QQQ  144  TIP3 OH2  OT    -0.834000       15.9994           0   0.00000     -0.301140E-02
     431 QQQ  144  TIP3 H1   HT     0.417000       1.00800           0   0.00000     -0.301140E-02
     432 QQQ  144  TIP3 H2   HT     0.417000       1.00800           0   0.00000     -0.301140E-02
     433 QQQ  145  TIP3 OH2  OT    -0.834000       15.9994           0   0.00000     -0.301140E-02
     434 QQQ  145  TIP3 H1   HT     0.417000       1.00800           0   0.00000     -0.301140E-02
     435 QQQ  145  TIP3 H2   HT     0.417000       1.00800           0   0.00000     -0.301140E-02
     436 QQQ  146  TIP3 OH2  OT    -0.834000       15.9994           0   0.00000     -0.301140E-02
     437 QQQ  146  TIP3 H1   HT     0.417000       1.00800           0   0.00000     -0.301140E-02
     438 QQQ  146  TIP3 H2   HT     0.417000       1.00800           0   0.00000     -0.301140E-02
     439 QQQ  147  TIP3 OH2  OT    -0.834000       15.9994           0   0.00000     -0.301140E-02
     440 QQQ  147  TIP3 H1   HT     0.417000       1.00800           0   0.00000     -0.301140E-02
     441 QQQ  147  TIP3 H2   HT     0.417000       1.00800           0   0.00000     -0.301140E-02
     442 QQQ  148  TIP3 OH2  OT    -0.834000       15.9994           0   0.00000     -0.301140E-02
     443 QQQ  148  TIP3 H1   HT     0.417000       1.00800           0   0.00000     -0.301140E-02
     444 QQQ  148  TIP3 H2   HT     0.417000       1.00800           0   0.00000     -0.301140E-02
     445 QQQ  149  TIP3 OH2  OT    -0.834000       15.9994           0   0.00000     -0.301140E-02
     446 QQQ  149  TIP3 H1   HT     0.417000       1.00800           0   0.00000     -0.301140E-02
     447 QQQ  149  TIP3 H2   HT     0.417000       1.00800           0   0.00000     -0.301140E-02
     448 QQQ  150  TIP3 OH2  OT    -0.834000       15.9994           0   0.00000     -0.301140E-02
     449 QQQ  150  TIP3 H1   HT     0.417000       1.00800           0   0.00000     -0.301140E-02
     450 QQQ  150  TIP3 H2   HT     0.417000       1.00800           0   0.00000     -0.301140E-02
     451 QQQ  151  TIP3 OH2  OT    -0.834000       15.9994           0   0.00000     -0.301140E-02
     452 QQQ  151  TIP3 H1   HT     0.417000       1.00800           0   0.00000     -0.301140E-02
     453 QQQ  151  TIP3 H2   HT     0.417000       1.00800           0   0.00000     -0.301140E-02
     454 QQQ  152  TIP3 OH2  OT    -0.834000       15.9994           0   0.00000     -0.301140E-02
     455 QQQ  152  TIP3 H1   HT     0.417000       1.00800           0   0.00000     -0.301140E-02
     456 QQQ  152  TIP3 H2   HT     0.417000       1.00800           0   0.00000     -0.301140E-02
     457 QQQ  153  TIP3 OH2  OT    -0.834000       15.9994           0   0.00000     -0.301140E-02
     458 QQQ  153  TIP3 H1   HT     0.417000       1.00800           0   0.00000     -0.301140E-02
     459 QQQ  153  TIP3 H2   HT     0.417000       1.00800           0   0.00000     -0.301140E-02
     460 QQQ  154  TIP3 OH2  OT    -0.834000       15.9994           0   0.00000     -0.301140E-02
     461 QQQ  154  TIP3 H1   HT     0.417000       1.00800           0   0.00000     -0.301140E-02
     462 QQQ  154  TIP3 H2   HT     0.417000       1.00800           0   0.00000     -0.301140E-02
     463 QQQ  155  TIP3 OH2  OT    -0.834000       15.9994           0   0.00000     -0.301140E-02
     464 QQQ  155  TIP3 H1   HT     0.417000       1.00800           0   0.00000     -0.301140E-02
     465 QQQ  155  TIP3 H2   HT     0.417000       1.00800           0   0.00000     -0.301140E-02
     466 QQQ  156  TIP3 OH2  OT    -0.834000       15.9994           0   0.00000     -0.301140E-02
     467 QQQ  156  TIP3 H1   HT     0.417000       1.00800           0   0.00000     -0.301140E-02
     468 QQQ  156  TIP3 H2   HT     0.417000       1.00800           0   0.00000     -0.301140E-02
     469 QQQ  157  TIP3 OH2  OT    -0.834000       15.9994           0   0.00000     -0.301140E-02
     470 QQQ  157  TIP3 H1   HT     0.417000       1.00800           0   0.00000     -0.301140E-02
     471 QQQ  157  TIP3 H2   HT     0.417000       1.00800           0   0.00000     -0.301140E-02
     472 QQQ  158  TIP3 OH2  OT    -0.834000       15.9994           0   0.00000     -0.301140E-02
     473 QQQ  158  TIP3 H1   HT     0.417000       1.00800           0   0.00000     -0.301140E-02
     474 QQQ  158  TIP3 H2   HT     0.417000       1.00800           0   0.00000     -0.301140E-02
     475 QQQ  159  TIP3 OH2  OT    -0.834000       15.9994           0   0.00000     -0.301140E-02
     476 QQQ  159  TIP3 H1   HT     0.417000       1.00800           0   0.00000     -0.301140E-02
     477 QQQ  159  TIP3 H2   HT     0.417000       1.00800           0   0.00000     -0.301140E-02
     478 QQQ  160  TIP3 OH2  OT    -0.834000       15.9994           0   0.00000     -0.301140E-02
     479 QQQ  160  TIP3 H1   HT     0.417000       1.00800           0   0.00000     -0.301140E-02
     480 QQQ  160  TIP3 H2   HT     0.417000       1.00800           0   0.00000     -0.301140E-02
     481 QQQ  161  TIP3 OH2  OT    -0.834000       15.9994           0   0.00000     -0.301140E-02
     482 QQQ  161  TIP3 H1   HT     0.417000       1.00800           0   0.00000     -0.301140E-02
     483 QQQ  161  TIP3 H2   HT     0.417000       1.00800           0   0.00000     -0.301140E-02
     484 QQQ  162  TIP3 OH2  OT    -0.834000       15.9994           0   0.00000     -0.301140E-02
     485 QQQ  162  TIP3 H1   HT     0.417000       1.00800           0   0.00000     -0.301140E-02
     486 QQQ  162  TIP3 H2   HT     0.417000       1.00800           0   0.00000     -0.301140E-02
     487 QQQ  163  TIP3 OH2  OT    -0.834000       15.9994           0   0.00000     -0.301140E-02
     488 QQQ  163  TIP3 H1   HT     0.417000       1.00800           0   0.00000     -0.301140E-02
     489 QQQ  163  TIP3 H2   HT     0.417000       1.00800           0   0.00000     -0.301140E-02
     490 QQQ  164  TIP3 OH2  OT    -0.834000       15.9994           0   0.00000     -0.301140E-02
     491 QQQ  164  TIP3 H1   HT     0.417000       1.00800           0   0.00000     -0.301140E-02
     492 QQQ  164  TIP3 H2   HT     0.417000       1.00800           0   0.00000     -0.301140E-02
     493 QQQ  165  TIP3 OH2  OT    -0.834000       15.9994           0   0.00000     -0.301140E-02
     494 QQQ  165  TIP3 H1   HT     0.417000       1.00800           0   0.00000     -0.301140E-02
     495 QQQ  165  TIP3 H2   HT     0.417000       1.00800           0   0.00000     -0.301140E-02
     496 QQQ  166  TIP3 OH2  OT    -0.834000       15.9994           0   0.00000     -0.301140E-02
     497 QQQ  166  TIP3 H1   HT     0.417000       1.00800           0   0.00000     -0.301140E-02
     498 QQQ  166  TIP3 H2   HT     0.417000       1.00800           0   0.00000     -0.301140E-02
     499 QQQ  167  TIP3 OH2  OT    -0.834000       15.9994           0   0.00000     -0.301140E-02
     500 QQQ  167  TIP3 H1   HT     0.417000       1.00800           0   0.00000     -0.301140E-02
     501 QQQ  167  TIP3 H2   HT     0.417000       1.00800           0   0.00000     -0.301140E-02
     502 QQQ  168  TIP3 OH2  OT    -0.834000       15.9994           0   0.00000     -0.301140E-02
     503 QQQ  168  TIP3 H1   HT     0.417000       1.00800           0   0.00000     -0.301140E-02
     504 QQQ  168  TIP3 H2   HT     0.417000       1.00800           0   0.00000     -0.301140E-02
     505 QQQ  169  TIP3 OH2  OT    -0.834000       15.9994           0   0.00000     -0.301140E-02
     506 QQQ  169  TIP3 H1   HT     0.417000       1.00800           0   0.00000     -0.301140E-02
     507 QQQ  169  TIP3 H2   HT     0.417000       1.00800           0   0.00000     -0.301140E-02
     508 QQQ  170  TIP3 OH2  OT    -0.834000       15.9994           0   0.00000     -0.301140E-02
     509 QQQ  170  TIP3 H1   HT     0.417000       1.00800           0   0.00000     -0.301140E-02
     510 QQQ  170  TIP3 H2   HT     0.417000       1.00800           0   0.00000     -0.301140E-02
     511 QQQ  171  TIP3 OH2  OT    -0.834000       15.9994           0   0.00000     -0.301140E-02
     512 QQQ  171  TIP3 H1   HT     0.417000       1.00800           0   0.00000     -0.301140E-02
     513 QQQ  171  TIP3 H2   HT     0.417000       1.00800           0   0.00000     -0.301140E-02
     514 QQQ  172  TIP3 OH2  OT    -0.834000       15.9994           0   0.00000     -0.301140E-02
     515 QQQ  172  TIP3 H1   HT     0.417000       1.00800           0   0.00000     -0.301140E-02
     516 QQQ  172  TIP3 H2   HT     0.417000       1.00800           0   0.00000     -0.301140E-02
     517 QQQ  173  TIP3 OH2  OT    -0.834000       15.9994           0   0.00000     -0.301140E-02
     518 QQQ  173  TIP3 H1   HT     0.417000       1.00800           0   0.00000     -0.301140E-02
     519 QQQ  173  TIP3 H2   HT     0.417000       1.00800           0   0.00000     -0.301140E-02
     520 QQQ  174  TIP3 OH2  OT    -0.834000       15.9994           0   0.00000     -0.301140E-02
     521 QQQ  174  TIP3 H1   HT     0.417000       1.00800           0   0.00000     -0.301140E-02
     522 QQQ  174  TIP3 H2   HT     0.417000       1.00800           0   0.00000     -0.301140E-02
     523 QQQ  175  TIP3 OH2  OT    -0.834000       15.9994           0   0.00000     -0.301140E-02
     524 QQQ  175  TIP3 H1   HT     0.417000       1.00800           0   0.00000     -0.301140E-02
     525 QQQ  175  TIP3 H2   HT     0.417000       1.00800           0   0.00000     -0.301140E-02
     526 QQQ  176  TIP3 OH2  OT    -0.834000       15.9994           0   0.00000     -0.301140E-02
     527 QQQ  176  TIP3 H1   HT     0.417000       1.00800           0   0.00000     -0.301140E-02
     528 QQQ  176  TIP3 H2   HT     0.417000       1.00800           0   0.00000     -0.301140E-02
     529 QQQ  177  TIP3 OH2  OT    -0.834000       15.9994           0   0.00000     -0.301140E-02
     530 QQQ  177  TIP3 H1   HT     0.417000       1.00800           0   0.00000     -0.301140E-02
     531 QQQ  177  TIP3 H2   HT     0.417000       1.00800           0   0.00000     -0.301140E-02
     532 QQQ  178  TIP3 OH2  OT    -0.834000       15.9994           0   0.00000     -0.301140E-02
     533 QQQ  178  TIP3 H1   HT     0.417000       1.00800           0   0.00000     -0.301140E-02
     534 QQQ  178  TIP3 H2   HT     0.417000       1.00800           0   0.00000     -0.301140E-02
     535 QQQ  179  TIP3 OH2  OT    -0.834000       15.9994           0   0.00000     -0.301140E-02
     536 QQQ  179  TIP3 H1   HT     0.417000       1.00800           0   0.00000     -0.301140E-02
     537 QQQ  179  TIP3 H2   HT     0.417000       1.00800           0   0.00000     -0.301140E-02
     538 QQQ  180  TIP3 OH2  OT    -0.834000       15.9994           0   0.00000     -0.301140E-02
     539 QQQ  180  TIP3 H1   HT     0.417000       1.00800           0   0.00000     -0.301140E-02
     540 QQQ  180  TIP3 H2   HT     0.417000       1.00800           0   0.00000     -0.301140E-02
     541 QQQ  181  TIP3 OH2  OT    -0.834000       15.9994           0   0.00000     -0.301140E-02
     542 QQQ  181  TIP3 H1   HT     0.417000       1.00800           0   0.00000     -0.301140E-02
     543 QQQ  181  TIP3 H2   HT     0.417000       1.00800           0   0.00000     -0.301140E-02
     544 QQQ  182  TIP3 OH2  OT    -0.834000       15.9994           0   0.00000     -0.301140E-02
     545 QQQ  182  TIP3 H1   HT     0.417000       1.00800           0   0.00000     -0.301140E-02
     546 QQQ  182  TIP3 H2   HT     0.417000       1.00800           0   0.00000     -0.301140E-02
     547 QQQ  183  TIP3 OH2  OT    -0.834000       15.9994           0   0.00000     -0.301140E-02
     548 QQQ  183  TIP3 H1   HT     0.417000       1.00800           0   0.00000     -0.301140E-02
     549 QQQ  183  TIP3 H2   HT     0.417000       1.00800           0   0.00000     -0.301140E-02
     550 QQQ  184  TIP3 OH2  OT    -0.834000       15.9994           0   0.00000     -0.301140E-02
     551 QQQ  184  TIP3 H1   HT     0.417000       1.00800           0   0.00000     -0.301140E-02
     552 QQQ  184  TIP3 H2   HT     0.417000       1.00800           0   0.00000     -0.301140E-02
     553 QQQ  185  TIP3 OH2  OT    -0.834000       15.9994           0   0.00000     -0.301140E-02
     554 QQQ  185  TIP3 H1   HT     0.417000       1.00800           0   0.00000     -0.301140E-02
     555 QQQ  185  TIP3 H2   HT     0.417000       1.00800           0   0.00000     -0.301140E-02
     556 QQQ  186  TIP3 OH2  OT    -0.834000       15.9994           0   0.00000     -0.301140E-02
     557 QQQ  186  TIP3 H1   HT     0.417000       1.00800           0   0.00000     -0.301140E-02
     558 QQQ  186  TIP3 H2   HT     0.417000       1.00800           0   0.00000     -0.301140E-02
     559 QQQ  187  TIP3 OH2  OT    -0.834000       15.9994           0   0.00000     -0.301140E-02
     560 QQQ  187  TIP3 H1   HT     0.417000       1.00800           0   0.00000     -0.301140E-02
     561 QQQ  187  TIP3 H2   HT     0.417000       1.00800           0   0.00000     -0.301140E-02
     562 QQQ  188  TIP3 OH2  OT    -0.834000       15.9994           0   0.00000     -0.301140E-02
     563 QQQ  188  TIP3 H1   HT     0.417000       1.00800           0   0.00000     -0.301140E-02
     564 QQQ  188  TIP3 H2   HT     0.417000       1.00800           0   0.00000     -0.301140E-02
     565 QQQ  189  TIP3 OH2  OT    -0.834000       15.9994           0   0.00000     -0.301140E-02
     566 QQQ  189  TIP3 H1   HT     0.417000       1.00800           0   0.00000     -0.301140E-02
     567 QQQ  189  TIP3 H2   HT     0.417000       1.00800           0   0.00000     -0.301140E-02
     568 QQQ  190  TIP3 OH2  OT    -0.834000       15.9994           0   0.00000     -0.301140E-02
     569 QQQ  190  TIP3 H1   HT     0.417000       1.00800           0   0.00000     -0.301140E-02
     570 QQQ  190  TIP3 H2   HT     0.417000       1.00800           0   0.00000     -0.301140E-02
     571 QQQ  191  TIP3 OH2  OT    -0.834000       15.9994           0   0.00000     -0.301140E-02
     572 QQQ  191  TIP3 H1   HT     0.417000       1.00800           0   0.00000     -0.301140E-02
     573 QQQ  191  TIP3 H2   HT     0.417000       1.00800           0   0.00000     -0.301140E-02
     574 QQQ  192  TIP3 OH2  OT    -0.834000       15.9994           0   0.00000     -0.301140E-02
     575 QQQ  192  TIP3 H1   HT     0.417000       1.00800           0   0.00000     -0.301140E-02
     576 QQQ  192  TIP3 H2   HT     0.417000       1.00800           0   0.00000     -0.301140E-02
     577 QQQ  193  TIP3 OH2  OT    -0.834000       15.9994           0   0.00000     -0.301140E-02
     578 QQQ  193  TIP3 H1   HT     0.417000       1.00800           0   0.00000     -0.301140E-02
     579 QQQ  193  TIP3 H2   HT     0.417000       1.00800           0   0.00000     -0.301140E-02
     580 QQQ  194  TIP3 OH2  OT    -0.834000       15.9994           0   0.00000     -0.301140E-02
     581 QQQ  194  TIP3 H1   HT     0.417000       1.00800           0   0.00000     -0.301140E-02
     582 QQQ  194  TIP3 H2   HT     0.417000       1.00800           0   0.00000     -0.301140E-02
     583 QQQ  195  TIP3 OH2  OT    -0.834000       15.9994           0   0.00000     -0.301140E-02
     584 QQQ  195  TIP3 H1   HT     0.417000       1.00800           0   0.00000     -0.301140E-02
     585 QQQ  195  TIP3 H2   HT     0.417000       1.00800           0   0.00000     -0.301140E-02
     586 QQQ  196  TIP3 OH2  OT    -0.834000       15.9994           0   0.00000     -0.301140E-02
     587 QQQ  196  TIP3 H1   HT     0.417000       1.00800           0   0.00000     -0.301140E-02
     588 QQQ  196  TIP3 H2   HT     0.417000       1.00800           0   0.00000     -0.301140E-02
     589 QQQ  197  TIP3 OH2  OT    -0.834000       15.9994           0   0.00000     -0.301140E-02
     590 QQQ  197  TIP3 H1   HT     0.417000       1.00800           0   0.00000     -0.301140E-02
     591 QQQ  197  TIP3 H2   HT     0.417000       1.00800           0   0.00000     -0.301140E-02
     592 QQQ  198  TIP3 OH2  OT    -0.834000       15.9994           0   0.00000     -0.301140E-02
     593 QQQ  198  TIP3 H1   HT     0.417000       1.00800           0   0.00000     -0.301140E-02
     594 QQQ  198  TIP3 H2   HT     0.417000       1.00800           0   0.00000     -0.301140E-02
     595 QQQ  199  TIP3 OH2  OT    -0.834000       15.9994           0   0.00000     -0.301140E-02
     596 QQQ  199  TIP3 H1   HT     0.417000       1.00800           0   0.00000     -0.301140E-02
     597 QQQ  199  TIP3 H2   HT     0.417000       1.00800           0   0.00000     -0.301140E-02
     598 QQQ  200  TIP3 OH2  OT    -0.834000       15.9994           0   0.00000     -0.301140E-02
     599 QQQ  200  TIP3 H1   HT     0.417000       1.00800           0   0.00000     -0.301140E-02
     600 QQQ  200  TIP3 H2   HT     0.417000       1.00800           0   0.00000     -0.301140E-02
     601 QQQ  201  TIP3 OH2  OT    -0.834000       15.9994           0   0.00000     -0.301140E-02
     602 QQQ  201  TIP3 H1   HT     0.417000       1.00800           0   0.00000     -0.301140E-02
     603 QQQ  201  TIP3 H2   HT     0.417000       1.00800           0   0.00000     -0.301140E-02
     604 QQQ  202  TIP3 OH2  OT    -0.834000       15.9994           0   0.00000     -0.301140E-02
     605 QQQ  202  TIP3 H1   HT     0.417000       1.00800           0   0.00000     -0.301140E-02
     606 QQQ  202  TIP3 H2   HT     0.417000       1.00800           0   0.00000     -0.301140E-02
     607 QQQ  203  TIP3 OH2  OT    -0.834000       15.9994           0   0.00000     -0.301140E-02
     608 QQQ  203  TIP3 H1   HT     0.417000       1.00800           0   0.00000     -0.301140E-02
     609 QQQ  203  TIP3 H2   HT     0.417000       1.00800           0   0.00000     -0.301140E-02
     610 QQQ  204  TIP3 OH2  OT    -0.834000       15.9994           0   0.00000     -0.301140E-02
     611 QQQ  204  TIP3 H1   HT     0.417000       1.00800           0   0.00000     -0.301140E-02
     612 QQQ  204  TIP3 H2   HT     0.417000       1.00800           0   0.00000     -0.301140E-02
     613 QQQ  205  TIP3 OH2  OT    -0.834000       15.9994           0   0.00000     -0.301140E-02
     614 QQQ  205  TIP3 H1   HT     0.417000       1.00800           0   0.00000     -0.301140E-02
     615 QQQ  205  TIP3 H2   HT     0.417000       1.00800           0   0.00000     -0.301140E-02
     616 QQQ  206  TIP3 OH2  OT    -0.834000       15.9994           0   0.00000     -0.301140E-02
     617 QQQ  206  TIP3 H1   HT     0.417000       1.00800           0   0.00000     -0.301140E-02
     618 QQQ  206  TIP3 H2   HT     0.417000       1.00800           0   0.00000     -0.301140E-02
     619 QQQ  207  TIP3 OH2  OT    -0.834000       15.9994           0   0.00000     -0.301140E-02
     620 QQQ  207  TIP3 H1   HT     0.417000       1.00800           0   0.00000     -0.301140E-02
     621 QQQ  207  TIP3 H2   HT     0.417000       1.00800           0   0.00000     -0.301140E-02
     622 QQQ  208  TIP3 OH2  OT    -0.834000       15.9994           0   0.00000     -0.301140E-02
     623 QQQ  208  TIP3 H1   HT     0.417000       1.00800           0   0.00000     -0.301140E-02
     624 QQQ  208  TIP3 H2   HT     0.417000       1.00800           0   0.00000     -0.301140E-02
     625 QQQ  209  TIP3 OH2  OT    -0.834000       15.9994           0   0.00000     -0.301140E-02
     626 QQQ  209  TIP3 H1   HT     0.417000       1.00800           0   0.00000     -0.301140E-02
     627 QQQ  209  TIP3 H2   HT     0.417000       1.00800           0   0.00000     -0.301140E-02
     628 QQQ  210  TIP3 OH2  OT    -0.834000       15.9994           0   0.00000     -0.301140E-02
     629 QQQ  210  TIP3 H1   HT     0.417000       1.00800           0   0.00000     -0.301140E-02
     630 QQQ  210  TIP3 H2   HT     0.417000       1.00800           0   0.00000     -0.301140E-02
     631 QQQ  211  TIP3 OH2  OT    -0.834000       15.9994           0   0.00000     -0.301140E-02
     632 QQQ  211  TIP3 H1   HT     0.417000       1.00800           0   0.00000     -0.301140E-02
     633 QQQ  211  TIP3 H2   HT     0.417000       1.00800           0   0.00000     -0.301140E-02
     634 QQQ  212  TIP3 OH2  OT    -0.834000       15.9994           0   0.00000     -0.301140E-02
     635 QQQ  212  TIP3 H1   HT     0.417000       1.00800           0   0.00000     -0.301140E-02
     636 QQQ  212  TIP3 H2   HT     0.417000       1.00800           0   0.00000     -0.301140E-02
     637 QQQ  213  TIP3 OH2  OT    -0.834000       15.9994           0   0.00000     -0.301140E-02
     638 QQQ  213  TIP3 H1   HT     0.417000       1.00800           0   0.00000     -0.301140E-02
     639 QQQ  213  TIP3 H2   HT     0.417000       1.00800           0   0.00000     -0.301140E-02
     640 QQQ  214  TIP3 OH2  OT    -0.834000       15.9994           0   0.00000     -0.301140E-02
     641 QQQ  214  TIP3 H1   HT     0.417000       1.00800           0   0.00000     -0.301140E-02
     642 QQQ  214  TIP3 H2   HT     0.417000       1.00800           0   0.00000     -0.301140E-02
     643 QQQ  215  TIP3 OH2  OT    -0.834000       15.9994           0   0.00000     -0.301140E-02
     644 QQQ  215  TIP3 H1   HT     0.417000       1.00800           0   0.00000     -0.301140E-02
     645 QQQ  215  TIP3 H2   HT     0.417000       1.00800           0   0.00000     -0.301140E-02
     646 QQQ  216  TIP3 OH2  OT    -0.834000       15.9994           0   0.00000     -0.301140E-02
     647 QQQ  216  TIP3 H1   HT     0.417000       1.00800           0   0.00000     -0.301140E-02
     648 QQQ  216  TIP3 H2   HT     0.417000       1.00800           0   0.00000     -0.301140E-02

     648 !NBOND: bonds
       1       2       1       3       2       3       4       5
       4       6       5       6       7       8       7       9
       8       9      10      11      10      12      11      12
      13      14      13      15      14      15      16      17
      16      18      17      18      19      20      19      21
      20      21      22      23      22      24      23      24
      25      26      25      27      26      27      28      29
      28      30      29      30      31      32      31      33
      32      33      34      35      34      36      35      36
      37      38      37      39      38      39      40      41
      40      42      41      42      43      44      43      45
      44      45      46      47      46      48      47      48
      49      50      49      51      50      51      52      53
      52      54      53      54      55      56      55      57
      56      57      58      59      58      60      59      60
      61      62      61      63      62      63      64      65
      64      66      65      66      67      68      67      69
      68      69      70      71      70      72      71      72
      73      74      73      75      74      75      76      77
      76      78      77      78      79      80      79      81
      80      81      82      83      82      84      83      84
      85      86      85      87      86      87      88      89
      88      90      89      90      91      92      91      93
      92      93      94      95      94      96      95      96
      97      98      97      99      98      99     100     101
     100     102     101     102     103     104     103     105
     104     105     106     107     106     108     107     108
     109     110     109     111     110     111     112     113
     112     114     113     114     115     116     115     117
     116     117     118     119     118     120     119     120
     121     122     121     123     122     123     124     125
     124     126     125     126     127     128     127     129
     128     129     130     131     130     132     131     132
     133     134     133     135     134     135     136     137
     136     138     137     138     139     140     139     141
     140     141     142     143     142     144     143     144
     145     146     145     147     146     147     148     149
     148     150     149     150     151     152     151     153
     152     153     154     155     154     156     155     156
     157     158     157     159     158     159     160     161
     160     162     161     162     163     164     163     165
     164     165     166     167     166     168     167     168
     169     170     169     171     170     171     172     173
     172     174     173     174     175     176     175     177
     176     177     178     179     178     180     179     180
     181     182     181     183     182     183     184     185
     184     186     185     186     187     188     187     189
     188     189     190     191     190     192     191     192
     193     194     193     195     194     195     196     197
     196     198     197     198     199     200     199     201
     200     201     202     203     202     204     203     204
     205     206     205     207     206     207     208     209
     208     210     209     210     211     212     211     213
     212     213     214     215     214     216     215     216
     217     218     217     219     218     219     220     221
     220     222     221     222     223     224     223     225
     224     225     226     227     226     228     227     228
     229     230     229     231     230     231     232     233
     232     234     233     234     235     236     235     237
     236     237     238     239     238     240     239     240
     241     242     241     243     242     243     244     245
     244     246     245     246     247     248     247     249
     248     249     250     251     250     252     251     252
     253     254     253     255     254     255     256     257
     256     258     257     258     259     260     259     261
     260     261     262     263     262     264     263     264
     265     266     265     267     266     267     268     269
     268     270     269     270     271     272     271     273
     272     273     274     275     274     276     275     276
     277     278     277     279     278     279     280     281
     280     282     281     282     283     284     283     285
     284     285     286     287     286     288     287     288
     289     290     289     291     290     291     292     293
     292     294     293     294     295     296     295     297
     296     297     298     299     298     300     299     300
     301     302     301     303     302     303     304     305
     304     306     305     306     307     308     307     309
     308     309     310     311     310     312     311     312
     313     314     313     315     314     315     316     317
     316     318     317     318     319     320     319     321
     320     321     322     323     322     324     323     324
     325     326     325     327     326     327     328     329
     328     330     329     330     331     332     331     333
     332     333     334     335     334     336     335     336
     337     338     337     339     338     339     340     341
     340     342     341     342     343     344     343     345
     344     345     346     347     346     348     347     348
     349     350     349     351     350     351     352     353
     352     354     353     354     355     356     355     357
     356     357     358     359     358     360     359     360
     361     362     361     363     362     363     364     365
     364     366     365     366     367     368     367     369
     368     369     370     371     370     372     371     372
     373     374     373     375     374     375     376     377
     376     378     377     378     379     380     379     381
     380     381     382     383     382     384     383     384
     385     386     385     387     386     387     388     389
     388     390     389     390     391     392     391     393
     392     393     394     395     394     396     395     396
     397     398     397     399     398     399     400     401
     400     402     401     402     403     404     403     405
     404     405     406     407     406     408     407     408
     409     410     409     411     410     411     412     413
     412     414     413     414     415     416     415     417
     416     417     418     419     418     420     419     420
     421     422     421     423     422     423     424     425
     424     426     425     426     427     428     427     429
     428     429     430     431     430     432     431     432
     433     434     433     435     434     435     436     437
     436     438     437     438     439     440     439     441
     440     441     442     443     442     444     443     444
     445     446     445     447     446     447     448     449
     448     450     449     450     451     452     451     453
     452     453     454     455     454     456     455     456
     457     458     457     459     458     459     460     461
     460     462     461     462     463     464     463     465
     464     465     466     467     466     468     467     468
     469     470     469     471     470     471     472     473
     472     474     473     474     475     476     475     477
     476     477     478     479     478     480     479     480
     481     482     481     483     482     483     484     485
     484     486     485     486     487     488     487     489
     488     489     490     491     490     492     491     492
     493     494     493     495     494     495     496     497
     496     498     497     498     499     500     499     501
     500     501     502     503     502     504     503     504
     505     506     505     507     506     507     508     509
     508     510     509     510     511     512     511     513
     512     513     514     515     514     516     515     516
     517     518     517     519     518     519     520     521
     520     522     521     522     523     524     523     525
     524     525     526     527     526     528     527     528
     529     530     529     531     530     531     532     533
     532     534     533     534     535     536     535     537
     536     537     538     539     538     540     539     540
     541     542     541     543     542     543     544     545
     544     546     545     546     547     548     547     549
     548     549     550     551     550     552     551     552
     553     554     553     555     554     555     556     557
     556     558     557     558     559     560     559     561
     560     561     562     563     562     564     563     564
     565     566     565     567     566     567     568     569
     568     570     569     570     571     572     571     573
     572     573     574     575     574     576     575     576
     577     578     577     579     578     579     580     581
     580     582     581     582     583     584     583     585
     584     585     586     587     586     588     587     588
     589     590     589     591     590     591     592     593
     592     594     593     594     595     596     595     597
     596     597     598     599     598     600     599     600
     601     602     601     603     602     603     604     605
     604     606     605     606     607     608     607     609
     608     609     610     611     610     612     611     612
     613     614     613     615     614     615     616     617
     616     618     617     618     619     620     619     621
     620     621     622     623     622     624     623     624
     625     626     625     627     626     627     628     629
     628     630     629     630     631     632     631     633
     632     633     634     635     634     636     635     636
     637     638     637     639     638     639     640     641
     640     642     641     642     643     644     643     645
     644     645     646     647     646     648     647     648

     216 !NTHETA: angles
       2       1       3       5       4       6       8       7       9
      11      10      12      14      13      15      17      16      18
      20      19      21      23      22      24      26      25      27
      29      28      30      32      31      33      35      34      36
      38      37      39      41      40      42      44      43      45
      47      46      48      50      49      51      53      52      54
      56      55      57      59      58      60      62      61      63
      65      64      66      68      67      69      71      70      72
      74      73      75      77      76      78      80      79      81
      83      82      84      86      85      87      89      88      90
      92      91      93      95      94      96      98      97      99
     101     100     102     104     103     105     107     106     108
     110     109     111     113     112     114     116     115     117
     119     118     120     122     121     123     125     124     126
     128     127     129     131     130     132     134     133     135
     137     136     138     140     139     141     143     142     144
     146     145     147     149     148     150     152     151     153
     155     154     156     158     157     159     161     160     162
     164     163     165     167     166     168     170     169     171
     173     172     174     176     175     177     179     178     180
     182     181     183     185     184     186     188     187     189
     191     190     192     194     193     195     197     196     198
     200     199     201     203     202     204     206     205     207
     209     208     210     212     211     213     215     214     216
     218     217     219     221     220     222     224     223     225
     227     226     228     230     229     231     233     232     234
     236     235     237     239     238     240     242     241     243
     245     244     246     248     247     249     251     250     252
     254     253     255     257     256     258     260     259     261
     263     262     264     266     265     267     269     268     270
     272     271     273     275     274     276     278     277     279
     281     280     282     284     283     285     287     286     288
     290     289     291     293     292     294     296     295     297
     299     298     300     302     301     303     305     304     306
     308     307     309     311     310     312     314     313     315
     317     316     318     320     319     321     323     322     324
     326     325     327     329     328     330     332     331     333
     335     334     336     338     337     339     341     340     342
     344     343     345     347     346     348     350     349     351
     353     352     354     356     355     357     359     358     360
     362     361     363     365     364     366     368     367     369
     371     370     372     374     373     375     377     376     378
     380     379     381     383     382     384     386     385     387
     389     388     390     392     391     393     395     394     396
     398     397     399     401     400     402     404     403     405
     407     406     408     410     409     411     413     412     414
     416     415     417     419     418     420     422     421     423
     425     424     426     428     427     429     431     430     432
     434     433     435     437     436     438     440     439     441
     443     442     444     446     445     447     449     448     450
     452     451     453     455     454     456     458     457     459
     461     460     462     464     463     465     467     466     468
     470     469     471     473     472     474     476     475     477
     479     478     480     482     481     483     485     484     486
     488     487     489     491     490     492     494     493     495
     497     496     498     500     499     501     503     502     504
     506     505     507     509     508     510     512     511     513
     515     514     516     518     517     519     521     520     522
     524     523     525     527     526     528     530     529     531
     533     532     534     536     535     537     539     538     540
     542     541     543     545     544     546     548     547     549
     551     550     552     554     553     555     557     556     558
     560     559     561     563     562     564     566     565     567
     569     568     570     572     571     573     575     574     576
     578     577     579     581     580     582     584     583     585
     587     586     588     590     589     591     593     592     594
     596     595     597     599     598     600     602     601     603
     605     604     606     608     607     609     611     610     612
     614     613     615     617     616     618     620     619     621
     623     622     624     626     625     627     629     628     630
     632     631     633     635     634     636     638     637     639
     641     640     642     644     643     645     647     646     648

       0 !NPHI: dihedrals


       0 !NIMPHI: impropers


       0 !NDON: donors


     216 !NACC: acceptors
       1       0       4       0       7       0      10       0
      13       0      16       0      19       0      22       0
      25       0      28       0      31       0      34       0
      37       0      40       0      43       0      46       0
      49       0      52       0      55       0      58       0
      61       0      64       0      67       0      70       0
      73       0      76       0      79       0      82       0
      85       0      88       0      91       0      94       0
      97       0     100       0     103       0     106       0
     109       0     112       0     115       0     118       0
     121       0     124       0     127       0     130       0
     133       0     136       0     139       0     142       0
     145       0     148       0     151       0     154       0
     157       0     160       0     163       0     166       0
     169       0     172       0     175       0     178       0
     181       0     184       0     187       0     190       0
     193       0     196       0     199       0     202       0
     205       0     208       0     211       0     214       0
     217       0     220       0     223       0     226       0
     229       0     232       0     235       0     238       0
     241       0     244       0     247       0     250       0
     253       0     256       0     259       0     262       0
     265       0     268       0     271       0     274       0
     277       0     280       0     283       0     286       0
     289       0     292       0     295       0     298       0
     301       0     304       0     307       0     310       0
     313       0     316       0     319       0     322       0
     325       0     328       0     331       0     334       0
     337       0     340       0     343       0     346       0
     349       0     352       0     355       0     358       0
     361       0     364       0     367       0     370       0
     373       0     376       0     379       0     382       0
     385       0     388       0     391       0     394       0
     397       0     400       0     403       0     406       0
     409       0     412       0     415       0     418       0
     421       0     424       0     427       0     430       0
     433       0     436       0     439       0     442       0
     445       0     448       0     451       0     454       0
     457       0     460       0     463       0     466       0
     469       0     472       0     475       0     478       0
     481       0     484       0     487       0     490       0
     493       0     496       0     499       0     502       0
     505       0     508       0     511       0     514       0
     517       0     520       0     523       0     526       0
     529       0     532       0     535       0     538       0
     541       0     544       0     547       0     550       0
     553       0     556       0     559       0     562       0
     565       0     568       0     571       0     574       0
     577       0     580       0     583       0     586       0
     589       0     592       0     595       0     598       0
     601       0     604       0     607       0     610       0
     613       0     616       0     619       0     622       0
     625       0     628       0     631       0     634       0
     637       0     640       0     643       0     646       0

       0 !NNB

       0       0       0       0       0       0       0       0
       0       0       0       0       0       0       0       0
       0       0       0       0       0       0       0       0
       0       0       0       0       0       0       0       0
       0       0       0       0       0       0       0       0
       0       0       0       0       0       0       0       0
       0       0       0       0       0       0       0       0
       0       0       0       0       0       0       0       0
       0       0       0       0       0       0       0       0
       0       0       0       0       0       0       0       0
       0       0       0       0       0       0       0       0
       0       0       0       0       0       0       0       0
       0       0       0       0       0       0       0       0
       0       0       0       0       0       0       0       0
       0       0       0       0       0       0       0       0
       0       0       0       0       0       0       0       0
       0       0       0       0       0       0       0       0
       0       0       0       0       0       0       0       0
       0       0       0       0       0       0       0       0
       0       0       0       0       0       0       0       0
       0       0       0       0       0       0       0       0
       0       0       0       0       0       0       0       0
       0       0       0       0       0       0       0       0
       0       0       0       0       0       0       0       0
       0       0       0       0       0       0       0       0
       0       0       0       0       0       0       0       0
       0       0       0       0       0       0       0       0
       0       0       0       0       0       0       0       0
       0       0       0       0       0       0       0       0
       0       0       0       0       0       0       0       0
       0       0       0       0       0       0       0       0
       0       0       0       0       0       0       0       0
       0       0       0       0       0       0       0       0
       0       0       0       0       0       0       0       0
       0       0       0       0       0       0       0       0
       0       0       0       0       0       0       0       0
       0       0       0       0       0       0       0       0
       0       0       0       0       0       0       0       0
       0       0       0       0       0       0       0       0
       0       0       0       0       0       0       0       0
       0       0       0       0       0       0       0       0
       0       0       0       0       0       0       0       0
       0       0       0       0       0       0       0       0
       0       0       0       0       0       0       0       0
       0       0       0       0       0       0       0       0
       0       0       0       0       0       0       0       0
       0       0       0       0       0       0       0       0
       0       0       0       0       0       0       0       0
       0       0       0       0       0       0       0       0
       0       0       0       0       0       0       0       0
       0       0       0       0       0       0       0       0
       0       0       0       0       0       0       0       0
       0       0       0       0       0       0       0       0
       0       0       0       0       0       0       0       0
       0       0       0       0       0       0       0       0
       0       0       0       0       0       0       0       0
       0       0       0       0       0       0       0       0
       0       0       0       0       0       0       0       0
       0       0       0       0       0       0       0       0
       0       0       0       0       0       0       0       0
       0       0       0       0       0       0       0       0
       0       0       0       0       0       0       0       0
       0       0       0       0       0       0       0       0
       0       0       0       0       0       0       0       0
       0       0       0       0       0       0       0       0
       0       0       0       0       0       0       0       0
       0       0       0       0       0       0       0       0
       0       0       0       0       0       0       0       0
       0       0       0       0       0       0       0       0
       0       0       0       0       0       0       0       0
       0       0       0       0       0       0       0       0
       0       0       0       0       0       0       0       0
       0       0       0       0       0       0       0       0
       0       0       0       0       0       0       0       0
       0       0       0       0       0       0       0       0
       0       0       0       0       0       0       0       0
       0       0       0       0       0       0       0       0
       0       0       0       0       0       0       0       0
       0       0       0       0       0       0       0       0
       0       0       0       0       0       0       0       0
       0       0       0       0       0       0       0       0

     216       0 !NGRP NST2
       0       1       0       3       1       0       6       1       0
       9       1       0      12       1       0      15       1       0
      18       1       0      21       1       0      24       1       0
      27       1       0      30       1       0      33       1       0
      36       1       0      39       1       0      42       1       0
      45       1       0      48       1       0      51       1       0
      54       1       0      57       1       0      60       1       0
      63       1       0      66       1       0      69       1       0
      72       1       0      75       1       0      78       1       0
      81       1       0      84       1       0      87       1       0
      90       1       0      93       1       0      96       1       0
      99       1       0     102       1       0     105       1       0
     108       1       0     111       1       0     114       1       0
     117       1       0     120       1       0     123       1       0
     126       1       0     129       1       0     132       1       0
     135       1       0     138       1       0     141       1       0
     144       1       0     147       1       0     150       1       0
     153       1       0     156       1       0     159       1       0
     162       1       0     165       1       0     168       1       0
     171       1       0     174       1       0     177       1       0
     180       1       0     183       1       0     186       1       0
     189       1       0     192       1       0     195       1       0
     198       1       0     201       1       0     204       1       0
     207       1       0     210       1       0     213       1       0
     216       1       0     219       1       0     222       1       0
     225       1       0     228       1       0     231       1       0
     234       1       0     237       1       0     240       1       0
     243       1       0     246       1       0     249       1       0
     252       1       0     255       1       0     258       1       0
     261       1       0     264       1       0     267       1       0
     270       1       0     273       1       0     276       1       0
     279       1       0     282       1       0     285       1       0
     288       1       0     291       1       0     294       1       0
     297       1       0     300       1       0     303       1       0
     306       1       0     309       1       0     312       1       0
     315       1       0     318       1       0     321       1       0
     324       1       0     327       1       0     330       1       0
     333       1       0     336       1       0     339       1       0
     342       1       0     345       1       0     348       1       0
     351       1       0     354       1       0     357       1       0
     360       1       0     363       1       0     366       1       0
     369       1       0     372       1       0     375       1       0
     378       1       0     381       1       0     384       1       0
     387       1       0     390       1       0     393       1       0
     396       1       0     399       1       0     402       1       0
     405       1       0     408       1       0     411       1       0
     414       1       0     417       1       0     420       1       0
     423       1       0     426       1       0     429       1       0
     432       1       0     435       1       0     438       1       0
     441       1       0     444       1       0     447       1       0
     450       1       0     453       1       0     456       1       0
     459       1       0     462       1       0     465       1       0
     468       1       0     471       1       0     474       1       0
     477       1       0     480       1       0     483       1       0
     486       1       0     489       1       0     492       1       0
     495       1       0     498       1       0     501       1       0
     504       1       0     507       1       0     510       1       0
     513       1       0     516       1       0     519       1       0
     522       1       0     525       1       0     528       1       0
     531       1       0     534       1       0     537       1       0
     540       1       0     543       1       0     546       1       0
     549       1       0     552       1       0     555       1       0
     558       1       0     561       1       0     564       1       0
     567       1       0     570       1       0     573       1       0
     576       1       0     579       1       0     582       1       0
     585       1       0     588       1       0     591       1       0
     594       1       0     597       1       0     600       1       0
     603       1       0     606       1       0     609       1       0
     612       1       0     615       1       0     618       1       0
     621       1       0     624       1       0     627       1       0
     630       1       0     633       1       0     636       1       0
     639       1       0     642       1       0     645       1       0

       1 !MOLNT
       1       1       1       1       1       1       1       1
       1       1       1       1       1       1       1       1
       1       1       1       1       1       1       1       1
       1       1       1       1       1       1       1       1
       1       1       1       1       1       1       1       1
       1       1       1       1       1       1       1       1
       1       1       1       1       1       1       1       1
       1       1       1       1       1       1       1       1
       1       1       1       1       1       1       1       1
       1       1       1       1       1       1       1       1
       1       1       1       1       1       1       1       1
       1       1       1       1       1       1       1       1
       1       1       1       1       1       1       1       1
       1       1       1       1       1       1       1       1
       1       1       1       1       1       1       1       1
       1       1       1       1       1       1       1       1
       1       1       1       1       1       1       1       1
       1       1       1       1       1       1       1       1
       1       1       1       1       1       1       1       1
       1       1       1       1       1       1       1       1
       1       1       1       1       1       1       1       1
       1       1       1       1       1       1       1       1
       1       1       1       1       1       1       1       1
       1       1       1       1       1       1       1       1
       1       1       1       1       1       1       1       1
       1       1       1       1       1       1       1       1
       1       1       1       1       1       1       1       1
       1       1       1       1       1       1       1       1
       1       1       1       1       1       1       1       1
       1       1       1       1       1       1       1       1
       1       1       1       1       1       1       1       1
       1       1       1       1       1       1       1       1
       1       1       1       1       1       1       1       1
       1       1       1       1       1       1       1       1
       1       1       1       1       1       1       1       1
       1       1       1       1       1       1       1       1
       1       1       1       1       1       1       1       1
       1       1       1       1       1       1       1       1
       1       1       1       1       1       1       1       1
       1       1       1       1       1       1       1       1
       1       1       1       1       1       1       1       1
       1       1       1       1       1       1       1       1
       1       1       1       1       1       1       1       1
       1       1       1       1       1       1       1       1
       1       1       1       1       1       1       1       1
       1       1       1       1       1       1       1       1
       1       1       1       1       1       1       1       1
       1       1       1       1       1       1       1       1
       1       1       1       1       1       1       1       1
       1       1       1       1       1       1       1       1
       1       1       1       1       1       1       1       1
       1       1       1       1       1       1       1       1
       1       1       1       1       1       1       1       1
       1       1       1       1       1       1       1       1
       1       1       1       1       1       1       1       1
       1       1       1       1       1       1       1       1
       1       1       1       1       1       1       1       1
       1       1       1       1       1       1       1       1
       1       1       1       1       1       1       1       1
       1       1       1       1       1       1       1       1
       1       1       1       1       1       1       1       1
       1       1       1       1       1       1       1       1
       1       1       1       1       1       1       1       1
       1       1       1       1       1       1       1       1
       1       1       1       1       1       1       1       1
       1       1       1       1       1       1       1       1
       1       1       1       1       1       1       1       1
       1       1       1       1       1       1       1       1
       1       1       1       1       1       1       1       1
       1       1       1       1       1       1       1       1
       1       1       1       1       1       1       1       1
       1       1       1       1       1       1       1       1
       1       1       1       1       1       1       1       1
       1       1       1       1       1       1       1       1
       1       1       1       1       1       1       1       1
       1       1       1       1       1       1       1       1
       1       1       1       1       1       1       1       1
       1       1       1       1       1       1       1       1
       1       1       1       1       1       1       1       1
       1       1       1       1       1       1       1       1
       1       1       1       1       1       1       1       1

       0       0 !NUMLP NUMLPH

       0 !NCRTERM: cross-terms

