PSF EXT CMAP CHEQ

         2 !NTITLE
* ADD SILCS LIGANDS TO A SOLVATED PROTEIN                                       
*  DATE: UNAVAILABLE IN THIS VERSION                                            

         7 !NATOM
         1 AALD     1        AALD     HA        275   0.900000E-01   1.00800           0   0.00000     -0.301140E-02
         2 AALD     1        AALD     C         296   0.200000       12.0110           0   0.00000     -0.301140E-02
         3 AALD     1        AALD     O         370  -0.400000       15.9994           0   0.00000     -0.301140E-02
         4 AALD     1        AALD     CB        326  -0.160000       12.0110           0   0.00000     -0.301140E-02
         5 AALD     1        AALD     HB1       258   0.900000E-01   1.00800           0   0.00000     -0.301140E-02
         6 AALD     1        AALD     HB2       258   0.900000E-01   1.00800           0   0.00000     -0.301140E-02
         7 AALD     1        AALD     HB3       258   0.900000E-01   1.00800           0   0.00000     -0.301140E-02

         6 !NBOND: bonds
         1         2         2         4         4         5         4         6
         4         7         2         3

         9 !NTHETA: angles
         1         2         3         1         2         4         3         2         4
         2         4         5         2         4         6         2         4         7
         5         4         6         5         4         7         6         4         7

         6 !NPHI: dihedrals
         1         2         4         5         1         2         4         6
         1         2         4         7         3         2         4         5
         3         2         4         6         3         2         4         7

         1 !NIMPHI: impropers
         2         4         3         1

         0 !NDON: donors


         1 !NACC: acceptors
         3         0

         0 !NNB

         0         0         0         0         0         0         0

         1         0 !NGRP NST2
         0         1         0

         1 !MOLNT
         1         1         1         1         1         1         1

         0         0 !NUMLP NUMLPH

         0 !NCRTERM: cross-terms

