PSF EXT CMAP CHEQ

         2 !NTITLE
* ADD SILCS LIGANDS TO A SOLVATED PROTEIN                                       
*  DATE: UNAVAILABLE IN THIS VERSION                                            

         7 !NATOM
         1 ACET     1        ACET     C1        326  -0.370000       12.0110           0   0.00000     -0.301140E-02
         2 ACET     1        ACET     C2        295   0.620000       12.0110           0   0.00000     -0.301140E-02
         3 ACET     1        ACET     H1        258   0.900000E-01   1.00800           0   0.00000     -0.301140E-02
         4 ACET     1        ACET     H2        258   0.900000E-01   1.00800           0   0.00000     -0.301140E-02
         5 ACET     1        ACET     H3        258   0.900000E-01   1.00800           0   0.00000     -0.301140E-02
         6 ACET     1        ACET     O1        371  -0.760000       15.9994           0   0.00000     -0.301140E-02
         7 ACET     1        ACET     O2        371  -0.760000       15.9994           0   0.00000     -0.301140E-02

         6 !NBOND: bonds
         1         3         1         4         1         5         1         2
         2         6         2         7

         9 !NTHETA: angles
         2         1         3         2         1         4         2         1         5
         3         1         4         3         1         5         4         1         5
         1         2         6         1         2         7         6         2         7

         6 !NPHI: dihedrals
         3         1         2         6         3         1         2         7
         4         1         2         6         4         1         2         7
         5         1         2         6         5         1         2         7

         1 !NIMPHI: impropers
         2         7         6         1

         0 !NDON: donors


         0 !NACC: acceptors


         0 !NNB

         0         0         0         0         0         0         0

         1         0 !NGRP NST2
         0         2         0

         1 !MOLNT
         1         1         1         1         1         1         1

         0         0 !NUMLP NUMLPH

         0 !NCRTERM: cross-terms

