PSF EXT CMAP CHEQ

         2 !NTITLE
* ADD SILCS LIGANDS TO A SOLVATED PROTEIN                                       
*  DATE: UNAVAILABLE IN THIS VERSION                                            

        12 !NATOM
         1 BENZ     1        BENZ     CG        308  -0.115000       12.0110           0   0.00000     -0.301140E-02
         2 BENZ     1        BENZ     HG        277   0.115000       1.00800           0   0.00000     -0.301140E-02
         3 BENZ     1        BENZ     CD1       308  -0.115000       12.0110           0   0.00000     -0.301140E-02
         4 BENZ     1        BENZ     HD1       277   0.115000       1.00800           0   0.00000     -0.301140E-02
         5 BENZ     1        BENZ     CD2       308  -0.115000       12.0110           0   0.00000     -0.301140E-02
         6 BENZ     1        BENZ     HD2       277   0.115000       1.00800           0   0.00000     -0.301140E-02
         7 BENZ     1        BENZ     CE1       308  -0.115000       12.0110           0   0.00000     -0.301140E-02
         8 BENZ     1        BENZ     HE1       277   0.115000       1.00800           0   0.00000     -0.301140E-02
         9 BENZ     1        BENZ     CE2       308  -0.115000       12.0110           0   0.00000     -0.301140E-02
        10 BENZ     1        BENZ     HE2       277   0.115000       1.00800           0   0.00000     -0.301140E-02
        11 BENZ     1        BENZ     CZ        308  -0.115000       12.0110           0   0.00000     -0.301140E-02
        12 BENZ     1        BENZ     HZ        277   0.115000       1.00800           0   0.00000     -0.301140E-02

        12 !NBOND: bonds
         3         1         5         1         7         3         9         5
        11         7        11         9         1         2         3         4
         5         6         7         8         9        10        11        12

        18 !NTHETA: angles
         2         1         3         2         1         5         3         1         5
         1         3         4         1         3         7         4         3         7
         1         5         6         1         5         9         6         5         9
         3         7         8         3         7        11         8         7        11
         5         9        10         5         9        11        10         9        11
         7        11         9         7        11        12         9        11        12

        24 !NPHI: dihedrals
         1         3         7         8         1         3         7        11
         1         5         9        10         1         5         9        11
         2         1         3         4         2         1         3         7
         2         1         5         6         2         1         5         9
         3         1         5         6         3         1         5         9
         3         7        11         9         3         7        11        12
         4         3         1         5         4         3         7         8
         4         3         7        11         5         1         3         7
         5         9        11         7         5         9        11        12
         6         5         9        10         6         5         9        11
         7        11         9        10         8         7        11         9
         8         7        11        12        10         9        11        12

         0 !NIMPHI: impropers


         0 !NDON: donors


         0 !NACC: acceptors


         0 !NNB

         0         0         0         0         0         0         0         0
         0         0         0         0

         1         0 !NGRP NST2
         0         1         0

         1 !MOLNT
         1         1         1         1         1         1         1         1
         1         1         1         1

         0         0 !NUMLP NUMLPH

         0 !NCRTERM: cross-terms

