PSF EXT CMAP CHEQ

         2 !NTITLE
* ADD SILCS LIGANDS TO A SOLVATED PROTEIN                                       
*  DATE: UNAVAILABLE IN THIS VERSION                                            

         8 !NATOM
         1 MAMM     1        MAMM     CE        327   0.160000       12.0110           0   0.00000     -0.301140E-02
         2 MAMM     1        MAMM     NZ        369  -0.300000       14.0070           0   0.00000     -0.301140E-02
         3 MAMM     1        MAMM     HE1       258   0.500000E-01   1.00800           0   0.00000     -0.301140E-02
         4 MAMM     1        MAMM     HE2       258   0.500000E-01   1.00800           0   0.00000     -0.301140E-02
         5 MAMM     1        MAMM     HE3       258   0.500000E-01   1.00800           0   0.00000     -0.301140E-02
         6 MAMM     1        MAMM     HZ1       267   0.330000       1.00800           0   0.00000     -0.301140E-02
         7 MAMM     1        MAMM     HZ2       267   0.330000       1.00800           0   0.00000     -0.301140E-02
         8 MAMM     1        MAMM     HZ3       267   0.330000       1.00800           0   0.00000     -0.301140E-02

         7 !NBOND: bonds
         1         3         1         4         1         5         1         2
         2         6         2         7         2         8

        12 !NTHETA: angles
         2         1         3         2         1         4         2         1         5
         3         1         4         3         1         5         4         1         5
         1         2         6         1         2         7         1         2         8
         6         2         7         6         2         8         7         2         8

         9 !NPHI: dihedrals
         3         1         2         6         3         1         2         7
         3         1         2         8         4         1         2         6
         4         1         2         7         4         1         2         8
         5         1         2         6         5         1         2         7
         5         1         2         8

         0 !NIMPHI: impropers


         0 !NDON: donors


         0 !NACC: acceptors


         0 !NNB

         0         0         0         0         0         0         0         0

         1         0 !NGRP NST2
         0         2         0

         1 !MOLNT
         1         1         1         1         1         1         1         1

         0         0 !NUMLP NUMLPH

         0 !NCRTERM: cross-terms

