PSF EXT CMAP CHEQ

         2 !NTITLE
* ADD SILCS LIGANDS TO A SOLVATED PROTEIN                                       
*  DATE: UNAVAILABLE IN THIS VERSION                                            

        11 !NATOM
         1 PRPA     1        PRPA     H11       258   0.900000E-01   1.00800           0   0.00000     -0.301140E-02
         2 PRPA     1        PRPA     H12       258   0.900000E-01   1.00800           0   0.00000     -0.301140E-02
         3 PRPA     1        PRPA     H13       258   0.900000E-01   1.00800           0   0.00000     -0.301140E-02
         4 PRPA     1        PRPA     C1        326  -0.270000       12.0110           0   0.00000     -0.301140E-02
         5 PRPA     1        PRPA     C2        322  -0.180000       12.0110           0   0.00000     -0.301140E-02
         6 PRPA     1        PRPA     H21       257   0.900000E-01   1.00800           0   0.00000     -0.301140E-02
         7 PRPA     1        PRPA     H22       257   0.900000E-01   1.00800           0   0.00000     -0.301140E-02
         8 PRPA     1        PRPA     H31       258   0.900000E-01   1.00800           0   0.00000     -0.301140E-02
         9 PRPA     1        PRPA     H32       258   0.900000E-01   1.00800           0   0.00000     -0.301140E-02
        10 PRPA     1        PRPA     H33       258   0.900000E-01   1.00800           0   0.00000     -0.301140E-02
        11 PRPA     1        PRPA     C3        326  -0.270000       12.0110           0   0.00000     -0.301140E-02

        10 !NBOND: bonds
         4         1         4         2         4         3         4         5
         5         6         5         7         5        11        11         8
        11         9        11        10

        18 !NTHETA: angles
         1         4         2         1         4         3         1         4         5
         2         4         3         2         4         5         3         4         5
         4         5         6         4         5         7         4         5        11
         6         5         7         6         5        11         7         5        11
         5        11         8         5        11         9         5        11        10
         8        11         9         8        11        10         9        11        10

        18 !NPHI: dihedrals
         1         4         5         6         1         4         5         7
         1         4         5        11         2         4         5         6
         2         4         5         7         2         4         5        11
         3         4         5         6         3         4         5         7
         3         4         5        11         4         5        11         8
         4         5        11         9         4         5        11        10
         6         5        11         8         6         5        11         9
         6         5        11        10         7         5        11         8
         7         5        11         9         7         5        11        10

         0 !NIMPHI: impropers


         0 !NDON: donors


         0 !NACC: acceptors


         0 !NNB

         0         0         0         0         0         0         0         0
         0         0         0

         1         0 !NGRP NST2
         0         1         0

         1 !MOLNT
         1         1         1         1         1         1         1         1
         1         1         1

         0         0 !NUMLP NUMLPH

         0 !NCRTERM: cross-terms

